11600
Atoms. Timestep     0
    1    2.0000    0.0408    0.0082    0.0326   -6.0972
    2    3.0000    0.0605    0.0226    0.0379   -5.0167
    3    2.0000    0.0370    0.0233    0.0137   -6.5175
    4    2.0000    0.0602    0.0420    0.0183   -6.5187
    5    2.0000    0.0557    0.0186    0.0371   -6.2600
    6    3.0000    0.1987    0.0278    0.1709   -5.3405
    7    3.0000    0.3005    0.0408    0.2596   -4.3002
    8    3.0000    0.3174    0.1645    0.1529   -4.8007
    9    3.0000    0.2262    0.1528    0.0734   -5.7789
   10    3.0000    0.1541    0.1152    0.0389   -5.0957
   11    3.0000    0.1262    0.1037    0.0224   -5.6117
   12    2.0000    0.0393    0.0277    0.0116   -6.8309
   13    2.0000    0.0234    0.0172    0.0063   -8.2223
   14    2.0000    0.0566    0.0216    0.0350   -7.6601
   15    3.0000    0.2493    0.0682    0.1811   -5.3051
   16    3.0000    0.5259    0.1900    0.3359   -2.2012
   17    2.0000    0.2072    0.0033    0.2039   -6.0748
   18    2.0000    0.0409    0.0124    0.0284   -6.6413
   19    3.0000    0.0487    0.0071    0.0416   -5.9159
   20    2.0000    0.1367    0.0162    0.1205   -6.3258
   21    3.0000    0.1490    0.0496    0.0994   -4.6736
   22    3.0000    0.2600    0.0313    0.2287   -4.8035
   23    3.0000    0.1779    0.0191    0.1588   -3.9356
   24    3.0000    0.1005    0.0500    0.0505   -4.4184
   25    3.0000   60.3299   60.0235    0.3064   -4.2739
   26    3.0000   60.2909   59.9773    0.3136   -3.4037
   27    3.0000    0.1914    0.0037    0.1877   -3.9023
   28    3.0000    0.2116    0.0361    0.1755   -5.4048
   29    3.0000    0.0806    0.0165    0.0642   -4.6423
   30    2.0000    0.0671    0.0436    0.0235   -6.0090
   31    3.0000    0.0919    0.0565    0.0354   -5.4292
   32    2.0000    0.1166    0.0708    0.0458   -6.3948
   33    2.0000    0.0838    0.0548    0.0289   -6.4991
   34    2.0000    0.1037    0.0066    0.0971   -7.3209
   35    2.0000    0.1381    0.0571    0.0810   -8.4111
   36    2.0000    0.0653    0.0291    0.0362   -6.6693
   37    3.0000    0.0417    0.0200    0.0217   -5.9107
   38    3.0000    0.1400    0.0122    0.1278   -5.0717
   39    3.0000    0.1780    0.0396    0.1384   -4.2043
   40    3.0000    0.0586    0.0203    0.0383   -5.7082
   41    2.0000    0.0521    0.0229    0.0292   -6.2313
   42    2.0000    0.1782    0.0369    0.1412   -6.1397
   43    2.0000    0.1619    0.0212    0.1406   -7.5228
   44    2.0000    0.1514    0.0341    0.1173   -7.7971
   45    2.0000    0.1629    0.0155    0.1473   -6.9727
   46    3.0000    0.2329    0.0466    0.1863   -4.7809
   47    3.0000    0.1501    0.0291    0.1211   -4.7669
   48    3.0000   60.6224   60.0453    0.5771   -4.1708
   49    3.0000   60.9359   60.2640    0.6719   -1.5564
   50    3.0000    0.2681    0.1489    0.1192   -3.7122
   51    2.0000    0.1806    0.1398    0.0408   -6.1576
   52    3.0000    0.2250    0.2174    0.0076   -5.7323
   53    3.0000    0.1673    0.1610    0.0063   -5.6837
   54    2.0000    0.0291    0.0260    0.0031   -6.4794
   55    2.0000    0.0606    0.0519    0.0087   -6.9098
   56    2.0000    0.1795    0.1231    0.0564   -7.3523
   57    2.0000    0.3327    0.1656    0.1671   -6.3260
   58    3.0000    0.5004    0.1698    0.3305   -2.0124
   59    3.0000    0.5852    0.2042    0.3810   -3.3627
   60    3.0000    0.7372    0.3804    0.3568   -3.0224
   61    3.0000    0.6779    0.3919    0.2859   -1.4281
   62    3.0000    0.6850    0.4535    0.2315   -2.0995
   63    3.0000    0.6191    0.4047    0.2144   -4.4085
   64    3.0000    0.4714    0.3253    0.1461   -4.9754
   65    3.0000    0.1506    0.0390    0.1116   -5.3020
   66    2.0000    0.1508    0.0547    0.0962   -6.9252
   67    2.0000    0.1345    0.0322    0.1023   -6.4560
   68    2.0000    0.1471    0.0131    0.1341   -6.4774
   69    3.0000    0.0836    0.0513    0.0323   -5.7125
   70    3.0000    0.0591    0.0156    0.0436   -5.0390
   71    3.0000    0.0707    0.0597    0.0110   -4.1284
   72    3.0000    0.0866    0.0683    0.0184   -3.4480
   73    3.0000    0.0421    0.0342    0.0079   -5.9508
   74    3.0000    0.0766    0.0376    0.0390   -5.3386
   75    3.0000    0.1815    0.0157    0.1658   -4.1530
   76    3.0000    0.3527    0.0075    0.3452   -3.6118
   77    3.0000    0.3770    0.0131    0.3640   -3.5344
   78    3.0000    0.2581    0.0530    0.2051   -4.6725
   79    2.0000    0.1071    0.0528    0.0543   -6.5440
   80    2.0000    0.0562    0.0304    0.0258   -6.5994
   81    3.0000    0.2218    0.0492    0.1725   -5.5942
   82    3.0000    0.3261    0.0284    0.2977   -4.8432
   83    2.0000    0.1776    0.0409    0.1367   -8.0299
   84    1.0000    0.1567    0.0486    0.1081   -9.0751
   85    2.0000    0.1667    0.0206    0.1460   -6.2103
   86    2.0000    0.1171    0.0420    0.0751   -6.9855
   87    2.0000    0.0295    0.0196    0.0099   -6.9574
   88    2.0000    0.0319    0.0239    0.0080   -7.0863
   89    2.0000    0.0583    0.0425    0.0158   -6.3462
   90    2.0000    0.0477    0.0235    0.0242   -6.1213
   91    3.0000    0.0747    0.0181    0.0566   -5.7483
   92    3.0000    0.1356    0.0261    0.1095   -5.9456
   93    3.0000    0.1953    0.0193    0.1760   -3.9356
   94    2.0000    0.1651    0.0208    0.1443   -6.3154
   95    2.0000    0.1649    0.0389    0.1260   -7.9777
   96    2.0000    0.1018    0.0100    0.0918   -6.9759
   97    2.0000    0.0659    0.0395    0.0264   -6.4001
   98    2.0000    0.0582    0.0484    0.0098   -6.0575
   99    3.0000    0.0924    0.0606    0.0318   -5.1623
  100    3.0000    0.0778    0.0301    0.0477   -4.8381
  101    3.0000    0.0752    0.0372    0.0381   -5.3318
  102    2.0000    0.1135    0.0565    0.0570   -6.9645
  103    2.0000    0.1715    0.0729    0.0985   -8.4763
  104    2.0000    0.1290    0.0532    0.0758   -7.2390
  105    2.0000    0.2340    0.0427    0.1914   -6.8932
  106    2.0000    0.4980    0.0832    0.4148   -6.9636
  107    2.0000    0.5870    0.1440    0.4429   -7.2002
  108    2.0000    0.4226    0.1367    0.2859   -7.2768
  109    2.0000    0.1874    0.0665    0.1210   -7.2916
  110    2.0000    0.1722    0.1154    0.0567   -7.2465
  111    2.0000    0.1192    0.0766    0.0425   -7.1610
  112    2.0000    0.0367    0.0165    0.0202   -8.7228
  113    1.0000    0.1185    0.0591    0.0594   -9.0328
  114    2.0000    0.2339    0.0147    0.2192   -6.4680
  115    3.0000    0.6997    0.2108    0.4889   -4.4161
  116    2.0000    0.5964    0.0800    0.5164   -7.2802
  117    3.0000    0.3779    0.1493    0.2285   -4.2606
  118    2.0000    0.1340    0.0758    0.0582   -8.6267
  119    2.0000    0.1512    0.0430    0.1082   -7.1804
  120    2.0000    0.3070    0.1355    0.1715   -6.6139
  121    2.0000    0.2964    0.1164    0.1800   -6.3117
  122    3.0000    0.4803    0.2407    0.2396   -4.2193
  123    3.0000    3.2065    2.9629    0.2436   -3.2269
  124    3.0000    3.3173    2.7106    0.6067    0.9314
  125    3.0000    2.3866    1.7201    0.6664   -5.0339
  126    3.0000    1.4246    0.8598    0.5648   -2.5192
  127    3.0000    0.3224    0.0232    0.2992   -5.0514
  128    3.0000    0.2204    0.0860    0.1344   -5.8850
  129    2.0000    0.1323    0.0228    0.1095   -6.4790
  130    2.0000    0.1379    0.0464    0.0915   -6.8513
  131    2.0000    0.1842    0.1045    0.0797   -7.4104
  132    2.0000    0.2128    0.0863    0.1265   -7.6585
  133    2.0000    0.2403    0.0823    0.1581   -8.8360
  134    1.0000    0.2624    0.1006    0.1618   -9.3427
  135    2.0000    0.2143    0.0873    0.1270   -7.8064
  136    2.0000    0.1311    0.0384    0.0927   -8.7033
  137    2.0000    0.3133    0.2072    0.1062   -6.7261
  138    3.0000    0.3329    0.1196    0.2133   -5.8923
  139    2.0000    0.2798    0.0928    0.1870   -6.9926
  140    2.0000    0.1613    0.0492    0.1121   -6.9379
  141    2.0000    0.2090    0.0534    0.1555   -7.2496
  142    2.0000    0.3069    0.0545    0.2524   -8.3500
  143    2.0000    0.6252    0.3818    0.2434   -6.3127
  144    2.0000    0.5697    0.2700    0.2997   -6.0097
  145    3.0000    0.6165    0.2409    0.3756   -5.7090
  146    3.0000    1.0592    0.6730    0.3862   -1.1140
  147    3.0000    1.3550    0.7803    0.5747   -3.9346
  148    3.0000    1.6543    0.5466    1.1078   -4.6352
  149    3.0000    1.2561    0.2546    1.0014   -4.4008
  150    3.0000    0.5201    0.1304    0.3897   -4.1709
  151    3.0000    0.1665    0.0169    0.1496   -5.1074
  152    3.0000    0.1541    0.0590    0.0951   -5.6247
  153    2.0000    0.1650    0.1025    0.0625   -6.7878
  154    2.0000    0.3182    0.2226    0.0956   -6.8088
  155    3.0000    0.5945    0.4273    0.1671   -5.5315
  156    3.0000    0.5286    0.2213    0.3073   -5.9358
  157    3.0000    0.6115    0.2651    0.3463   -5.3427
  158    3.0000    1.2645    0.7587    0.5058   -4.8597
  159    3.0000    1.3323    0.6732    0.6591   -3.9457
  160    3.0000    1.4354    0.8348    0.6006   -5.5693
  161    3.0000    0.8429    0.2517    0.5912   -4.7206
  162    3.0000    0.6919    0.0991    0.5928   -4.6065
  163    3.0000    0.7559    0.1912    0.5647   -4.2790
  164    3.0000    0.5921    0.1722    0.4199   -3.8029
  165    3.0000    0.6730    0.3639    0.3090   -5.5202
  166    2.0000    0.7170    0.4595    0.2575   -6.3349
  167    2.0000    0.2836    0.0304    0.2532   -8.1282
  168    2.0000    0.2345    0.0406    0.1939   -7.9265
  169    2.0000    0.2499    0.0677    0.1822   -7.8349
  170    2.0000    0.2592    0.2111    0.0481   -7.8304
  171    2.0000    0.2608    0.2218    0.0391   -7.4838
  172    2.0000    0.2484    0.1962    0.0522   -6.4355
  173    2.0000    0.0837    0.0473    0.0363   -7.2589
  174    2.0000    0.2167    0.0545    0.1622   -6.4825
  175    2.0000    0.5542    0.1356    0.4186   -6.5860
  176    3.0000    0.7743    0.1438    0.6305   -5.2559
  177    3.0000    0.7782    0.1501    0.6281   -4.8449
  178    3.0000    0.5902    0.1980    0.3923   -5.5631
  179    2.0000    0.4270    0.2384    0.1885   -6.6905
  180    2.0000    0.2166    0.0714    0.1452   -7.8660
  181    3.0000    0.4460    0.0550    0.3910   -5.6963
  182    2.0000    0.5254    0.0353    0.4901   -8.3781
  183    1.0000    0.2957    0.0162    0.2795  -10.3014
  184    1.0000    0.2957    0.0142    0.2815   -9.1701
  185    2.0000    0.2084    0.0225    0.1859   -6.8214
  186    2.0000    0.1259    0.0835    0.0424   -7.8016
  187    2.0000    0.1137    0.0940    0.0197   -8.0636
  188    2.0000    0.1041    0.0798    0.0243   -7.8405
  189    2.0000    0.0809    0.0599    0.0211   -7.5104
  190    2.0000    0.1399    0.0844    0.0555   -7.2558
  191    2.0000    0.2044    0.0847    0.1198   -6.9380
  192    3.0000    0.3440    0.0447    0.2993   -5.9593
  193    2.0000    0.4936    0.1577    0.3359   -6.5206
  194    2.0000    0.2939    0.0947    0.1993   -8.2992
  195    2.0000    0.2371    0.0403    0.1968   -8.6639
  196    2.0000    0.1285    0.0315    0.0971   -8.1991
  197    2.0000    0.0555    0.0145    0.0410   -7.3723
  198    2.0000    0.0804    0.0332    0.0473   -7.1944
  199    3.0000    0.1665    0.0768    0.0898   -4.5873
  200    3.0000    0.0436    0.0158    0.0278   -5.2040
  201    2.0000    0.0227    0.0162    0.0066   -7.1390
  202    2.0000    0.1181    0.0707    0.0474   -7.0937
  203    2.0000    0.1307    0.0239    0.1068   -7.7513
  204    2.0000    0.1586    0.0470    0.1116   -8.2770
  205    2.0000    0.2303    0.0394    0.1909   -8.3379
  206    1.0000    0.5309    0.1433    0.3875   -9.2377
  207    1.0000    0.5034    0.0509    0.4526   -9.4275
  208    1.0000    0.4311    0.1037    0.3275   -9.6115
  209    1.0000    0.2206    0.0478    0.1728  -10.2137
  210    2.0000    0.1647    0.0902    0.0746   -8.2413
  211    2.0000    0.1011    0.0532    0.0479   -8.1127
  212    1.0000    0.0692    0.0326    0.0366   -9.6291
  213    1.0000    0.1387    0.0697    0.0691  -10.2360
  214    2.0000    0.3249    0.0839    0.2410   -7.4772
  215    3.0000    0.5676    0.0837    0.4840   -5.8530
  216    1.0000    0.5382    0.0606    0.4777   -9.3780
  217    1.0000    0.2163    0.0206    0.1957  -10.9715
  218    1.0000    0.1399    0.1180    0.0219  -11.6306
  219    1.0000    0.2204    0.1870    0.0334  -10.1648
  220    1.0000    0.2155    0.1046    0.1109   -9.2746
  221    2.0000    0.2228    0.1503    0.0726   -7.6843
  222    3.0000    1.7469    1.5638    0.1831   -3.7108
  223    3.0000    2.0237    1.5246    0.4990    0.6762
  224    2.0000    3.8053    2.9457    0.8596   -6.2474
  225    3.0000    2.1867    1.0761    1.1105   -5.0867
  226    3.0000    1.5466    0.3975    1.1491   -0.0799
  227    3.0000    0.8191    0.1963    0.6228   -4.7482
  228    3.0000    0.5396    0.2238    0.3158   -3.7076
  229    2.0000    0.3321    0.1518    0.1803   -7.7571
  230    2.0000    0.2239    0.0257    0.1982   -7.8696
  231    2.0000    0.2585    0.0275    0.2309   -8.3370
  232    1.0000    0.3747    0.1628    0.2120   -9.6832
  233    1.0000    0.2936    0.1244    0.1692  -10.6062
  234    1.0000    0.2265    0.0527    0.1738   -9.4890
  235    1.0000    0.2065    0.0844    0.1221  -10.1500
  236    2.0000    0.2642    0.1398    0.1244   -8.8506
  237    2.0000    0.3109    0.2096    0.1014   -8.4154
  238    2.0000    0.3839    0.2284    0.1556   -7.3776
  239    2.0000    0.2510    0.1514    0.0995   -8.2467
  240    2.0000    0.2939    0.2256    0.0683   -7.6161
  241    2.0000    0.2534    0.0983    0.1551   -8.7528
  242    2.0000    0.5895    0.4065    0.1830   -7.4957
  243    3.0000    2.0870    1.8655    0.2215   -2.5266
  244    3.0000    2.0506    1.5544    0.4963   -3.7117
  245    3.0000    1.1535    0.5977    0.5559   -5.1845
  246    3.0000    1.0698    0.4827    0.5871   -3.2041
  247    2.0000    0.9995    0.2442    0.7553   -6.0973
  248    2.0000    0.8896    0.0792    0.8104   -6.3337
  249    3.0000    0.8730    0.0176    0.8553   -1.8454
  250    2.0000    0.6421    0.1066    0.5355   -6.4363
  251    3.0000    0.4036    0.0520    0.3516   -5.5973
  252    3.0000    0.2524    0.0204    0.2320   -5.7374
  253    2.0000    0.4482    0.2953    0.1528   -6.4628
  254    2.0000    1.7139    1.4958    0.2180   -6.9272
  255    3.0000    3.2951    2.9610    0.3341   -1.2933
  256    3.0000    3.4872    2.9546    0.5326   -0.4454
  257    2.0000    1.8821    1.4950    0.3871   -6.3800
  258    3.0000    2.0503    1.7265    0.3238   -5.4711
  259    3.0000    4.1721    3.7557    0.4163    2.6298
  260    3.0000    2.8777    2.4333    0.4443   -5.2904
  261    3.0000    1.1102    0.5892    0.5210   -3.1140
  262    2.0000    0.6272    0.0593    0.5679   -6.9711
  263    2.0000    0.7219    0.1024    0.6195   -7.2492
  264    2.0000    0.7277    0.0991    0.6287   -6.3994
  265    2.0000    0.7795    0.1797    0.5998   -6.0008
  266    3.0000    1.1102    0.5551    0.5552   -5.6614
  267    3.0000    1.1989    0.8413    0.3576   -5.0695
  268    2.0000    0.4512    0.1408    0.3104   -7.7321
  269    1.0000    0.2968    0.0413    0.2555   -9.8468
  270    1.0000    0.2024    0.0223    0.1801   -9.1051
  271    1.0000    0.2746    0.1231    0.1515   -9.3085
  272    2.0000    0.2359    0.1623    0.0736   -8.9008
  273    2.0000    0.1626    0.1043    0.0583   -8.0095
  274    2.0000    0.2536    0.2123    0.0413   -8.5110
  275    2.0000    0.1865    0.0963    0.0902   -8.7125
  276    2.0000    0.4880    0.2091    0.2789   -6.3838
  277    2.0000    0.5529    0.0376    0.5154   -7.9968
  278    2.0000    0.7636    0.0900    0.6737   -6.4715
  279    3.0000    0.8765    0.3436    0.5328   -5.9032
  280    2.0000    1.0174    0.7114    0.3060   -6.9942
  281    2.0000    0.5537    0.2872    0.2665   -7.3606
  282    2.0000    0.4229    0.0483    0.3746   -7.3897
  283    1.0000    0.4805    0.1405    0.3400   -9.8843
  284    1.0000    0.3238    0.0953    0.2286   -9.4533
  285    2.0000    0.1886    0.0395    0.1492   -7.9220
  286    2.0000    0.1448    0.0560    0.0888   -8.4600
  287    2.0000    0.0894    0.0567    0.0328   -8.8162
  288    1.0000    0.1159    0.0872    0.0287   -9.0842
  289    2.0000    0.0339    0.0195    0.0144   -8.9700
  290    2.0000    0.0998    0.0639    0.0359   -8.7134
  291    2.0000    0.1055    0.0396    0.0658   -8.2322
  292    2.0000    0.1284    0.0450    0.0834   -8.0471
  293    2.0000    0.3352    0.0703    0.2649   -7.0299
  294    2.0000    0.5773    0.2962    0.2812   -7.1412
  295    2.0000    0.1946    0.0285    0.1661   -8.8792
  296    1.0000    0.1642    0.0161    0.1481   -9.6668
  297    1.0000    0.0888    0.0194    0.0694   -9.4950
  298    2.0000    0.1386    0.0754    0.0632   -8.4929
  299    2.0000    0.1421    0.0435    0.0986   -7.4925
  300    3.0000    0.1076    0.0403    0.0673   -5.7474
  301    2.0000    0.1156    0.0232    0.0924   -7.2948
  302    2.0000    0.1614    0.0525    0.1089   -7.5396
  303    1.0000    0.1870    0.0636    0.1234   -9.5247
  304    2.0000    0.2436    0.0761    0.1675   -8.4581
  305    1.0000    0.6171    0.2467    0.3704  -10.1046
  306    1.0000    0.5388    0.0715    0.4673   -9.3545
  307    1.0000    0.4688    0.0928    0.3760  -11.6570
  308    1.0000    0.3026    0.1086    0.1940  -11.8832
  309    1.0000    0.1131    0.0246    0.0884   -9.5338
  310    2.0000    0.1777    0.1162    0.0615   -8.5489
  311    1.0000    0.0965    0.0533    0.0432   -9.0657
  312    1.0000    0.1636    0.0887    0.0749  -10.4784
  313    2.0000    0.4108    0.1664    0.2443   -7.6855
  314    2.0000    0.5328    0.0579    0.4750   -6.2312
  315    1.0000    0.4793    0.0213    0.4580   -9.4924
  316    0.0000    0.2091    0.0253    0.1838  -12.2633
  317    0.0000    0.0816    0.0627    0.0189  -13.4975
  318    0.0000    0.1465    0.1237    0.0228  -12.3751
  319    1.0000    0.2362    0.1592    0.0770  -10.7748
  320    2.0000    0.2452    0.0500    0.1952   -8.5492
  321    3.0000    1.5333    1.1244    0.4089   -4.6378
  322    2.0000    1.4333    0.6430    0.7903   -6.1894
  323    3.0000   60.7902   59.6474    1.1428   -4.3611
  324    3.0000    3.2179    1.9444    1.2734   10.9728
  325    2.0000  119.9846  118.9330    1.0516   -6.6066
  326    3.0000    1.4095    0.3725    1.0369   -2.6749
  327    3.0000    0.7679    0.2291    0.5388   -5.8504
  328    2.0000    0.3351    0.1050    0.2301   -6.3632
  329    2.0000    0.3401    0.0189    0.3212   -7.0026
  330    2.0000    0.5147    0.1633    0.3514   -7.5516
  331    2.0000    0.5799    0.2825    0.2974   -7.1178
  332    2.0000    0.3839    0.1659    0.2180   -8.9431
  333    1.0000    0.4208    0.2887    0.1321  -10.0000
  334    1.0000    0.2456    0.1175    0.1281  -10.3916
  335    2.0000    0.3632    0.2096    0.1537   -8.9185
  336    2.0000    0.2745    0.0967    0.1778   -8.8200
  337    2.0000    0.3950    0.2493    0.1456   -7.5522
  338    2.0000    0.4004    0.3262    0.0743   -7.4801
  339    2.0000    0.4139    0.3807    0.0332   -7.8180
  340    2.0000    0.3742    0.3001    0.0741   -7.6243
  341    2.0000    0.5418    0.4264    0.1154   -6.8701
  342    3.0000    1.2544    0.8372    0.4172   -3.2534
  343    3.0000    1.2205    0.4844    0.7361   -5.7598
  344    3.0000    1.0971    0.2270    0.8701   -5.9211
  345    2.0000    0.7756    0.2879    0.4877   -7.4153
  346    2.0000    1.3168    0.6100    0.7068   -6.9897
  347    3.0000    1.2695    0.4487    0.8208    0.7467
  348    2.0000    0.7012    0.1991    0.5021   -8.1217
  349    2.0000    0.8569    0.3316    0.5252   -7.3508
  350    2.0000    0.8383    0.2521    0.5863   -6.1365
  351    2.0000    0.5131    0.3095    0.2036   -6.5084
  352    3.0000    2.0706    1.8728    0.1978   -3.8485
  353    3.0000    0.8061    0.3756    0.4305   -5.3460
  354    2.0000    1.2966    0.7763    0.5203   -6.0081
  355    3.0000    1.9712    1.2338    0.7374   -5.9107
  356    2.0000    2.0284    1.4569    0.5715   -6.3791
  357    2.0000    1.1358    0.7185    0.4173   -6.4193
  358    2.0000    1.5268    0.9901    0.5367   -6.0874
  359    2.0000    1.7711    1.1805    0.5907   -6.2743
  360    2.0000    0.7945    0.4116    0.3829   -6.8419
  361    2.0000    0.4674    0.1077    0.3597   -7.5695
  362    2.0000    0.6816    0.2550    0.4265   -8.6499
  363    2.0000    0.8006    0.2827    0.5179   -7.2289
  364    2.0000    0.8173    0.2455    0.5718   -8.1293
  365    2.0000    0.9653    0.3534    0.6119   -7.8792
  366    2.0000    1.7620    1.1293    0.6327   -6.5330
  367    3.0000    1.3132    0.7307    0.5825   -5.8345
  368    2.0000    0.6074    0.2787    0.3286   -6.2885
  369    2.0000    0.4055    0.0629    0.3426   -7.6855
  370    1.0000    0.2971    0.0169    0.2802   -9.6690
  371    1.0000    0.1880    0.0406    0.1474   -9.0690
  372    2.0000    0.2302    0.0945    0.1357   -8.5498
  373    2.0000    0.3402    0.2543    0.0859   -8.2564
  374    2.0000    0.1069    0.0603    0.0466   -8.6691
  375    1.0000    0.1197    0.0595    0.0602   -9.5668
  376    2.0000    0.3652    0.1960    0.1691   -8.9612
  377    1.0000    0.4670    0.0816    0.3854   -9.9149
  378    2.0000    0.6854    0.1161    0.5693   -8.2316
  379    2.0000    1.1797    0.5514    0.6283   -6.3452
  380    3.0000    1.2147    0.8155    0.3992   -5.2557
  381    2.0000    1.5261    1.2375    0.2886   -7.0157
  382    2.0000    0.7372    0.3339    0.4033   -7.3856
  383    2.0000    0.4840    0.1211    0.3629   -8.6969
  384    2.0000    0.2731    0.1699    0.1032   -8.4651
  385    1.0000    0.2644    0.2273    0.0371   -9.1744
  386    1.0000    0.0921    0.0697    0.0224   -9.1882
  387    1.0000    0.1161    0.0979    0.0183   -9.0495
  388    1.0000    0.0731    0.0531    0.0200   -9.1068
  389    1.0000    0.0863    0.0662    0.0201   -9.1635
  390    2.0000    0.0506    0.0320    0.0187   -8.5088
  391    2.0000    0.0694    0.0369    0.0325   -8.4976
  392    2.0000    0.1859    0.0493    0.1367   -8.2842
  393    2.0000    0.2885    0.0512    0.2374   -7.5109
  394    2.0000    0.3447    0.1656    0.1791   -8.7815
  395    1.0000    0.1882    0.0305    0.1577  -10.2251
  396    1.0000    0.1438    0.0301    0.1137  -10.0316
  397    1.0000    0.1227    0.0416    0.0811   -9.8636
  398    2.0000    0.2233    0.0910    0.1323   -8.3454
  399    2.0000    0.3091    0.0917    0.2174   -6.8684
  400    3.0000    0.1057    0.0585    0.0473   -4.9838
  401    2.0000    0.0652    0.0172    0.0481   -6.0338
  402    2.0000    0.1441    0.0484    0.0957   -6.5399
  403    2.0000    0.1031    0.0271    0.0760   -8.9408
  404    2.0000    0.2489    0.0794    0.1694   -8.6447
  405    1.0000    0.6691    0.2918    0.3773   -9.2159
  406    1.0000    0.8775    0.3951    0.4825   -9.3213
  407    0.0000    0.6032    0.1593    0.4438  -12.1939
  408    0.0000    0.3023    0.0421    0.2602  -13.0937
  409    1.0000    0.3172    0.2027    0.1145  -11.2419
  410    1.0000    0.1890    0.0966    0.0923   -9.1699
  411    2.0000    0.0821    0.0373    0.0448   -8.7324
  412    1.0000    0.1129    0.0396    0.0732   -9.7111
  413    2.0000    0.3967    0.1595    0.2373   -7.8271
  414    2.0000    0.5591    0.0975    0.4616   -6.3406
  415    1.0000    0.5212    0.0741    0.4471   -9.4310
  416    0.0000    0.2775    0.0939    0.1836  -12.5440
  417    0.0000    0.0768    0.0492    0.0276  -13.9365
  418    0.0000    0.0759    0.0486    0.0274  -13.5834
  419    0.0000    0.2631    0.0963    0.1668  -12.0487
  420    2.0000    0.3720    0.0263    0.3457   -8.4822
  421    2.0000    0.9010    0.3877    0.5133   -6.1986
  422    2.0000    1.4127    0.6869    0.7258   -6.6493
  423    3.0000    1.8828    1.0494    0.8334    2.1304
  424    3.0000   59.0509   58.3862    0.6647   -2.5551
  425    2.0000   60.6668   60.2183    0.4485   -6.5216
  426    3.0000   60.8051   60.1324    0.6727   -5.0191
  427    3.0000    0.9933    0.4234    0.5699   -5.8928
  428    3.0000    0.4569    0.0554    0.4015   -4.8428
  429    2.0000    0.4040    0.0946    0.3094   -6.9239
  430    3.0000    0.7628    0.3203    0.4425   -5.2325
  431    2.0000    0.7889    0.3874    0.4015   -6.5987
  432    2.0000    0.6763    0.3980    0.2783   -7.9779
  433    2.0000    0.3614    0.1658    0.1956   -8.9205
  434    1.0000    0.4635    0.2980    0.1655   -9.2344
  435    1.0000    0.4273    0.1747    0.2527   -9.1373
  436    1.0000    0.3010    0.1137    0.1874   -9.5639
  437    2.0000    0.3711    0.2396    0.1315   -8.7145
  438    2.0000    0.4939    0.3993    0.0946   -6.9228
  439    2.0000    0.4820    0.4588    0.0232   -7.9731
  440    2.0000    0.4868    0.4631    0.0237   -8.3274
  441    2.0000    0.5467    0.3880    0.1587   -7.0643
  442    2.0000    0.5231    0.2449    0.2781   -6.3104
  443    2.0000    1.0888    0.4756    0.6132   -6.2881
  444    3.0000    1.2405    0.3555    0.8850   -1.3087
  445    2.0000    0.7219    0.1230    0.5989   -7.2177
  446    2.0000    0.6750    0.1274    0.5476   -8.2269
  447    2.0000    0.9564    0.5158    0.4406   -7.9061
  448    2.0000    0.4423    0.1323    0.3100   -8.4195
  449    3.0000    0.7195    0.2421    0.4774   -5.1980
  450    2.0000    1.0427    0.4994    0.5433   -6.6073
  451    2.0000    1.5978    1.1967    0.4011   -6.5587
  452    3.0000    3.5993    3.1891    0.4102    4.3671
  453    3.0000    1.6053    0.9118    0.6935   -5.7113
  454    2.0000    0.9829    0.3379    0.6450   -6.3821
  455    2.0000    2.0612    1.4231    0.6381   -7.5001
  456    3.0000    2.1083    1.3845    0.7238    2.9686
  457    2.0000    0.5911    0.2386    0.3525   -8.4124
  458    2.0000    1.1931    0.8304    0.3627   -8.3595
  459    3.0000    2.0259    1.4528    0.5731    0.6132
  460    2.0000    0.6297    0.2419    0.3878   -8.1747
  461    1.0000    0.3679    0.0846    0.2833   -9.3729
  462    1.0000    0.5436    0.1449    0.3987   -9.2167
  463    1.0000    0.6111    0.1830    0.4281   -9.7261
  464    1.0000    0.4988    0.0854    0.4135  -10.3236
  465    1.0000    0.6035    0.1442    0.4593  -10.6920
  466    2.0000    0.9720    0.4210    0.5510   -8.4236
  467    3.0000    1.6147    0.8414    0.7732    0.7260
  468    2.0000    0.6437    0.1221    0.5216   -6.9359
  469    2.0000    0.6721    0.2047    0.4674   -6.0225
  470    2.0000    0.4517    0.0723    0.3794   -6.5260
  471    2.0000    0.5136    0.0684    0.4452   -6.9336
  472    2.0000    0.3279    0.0507    0.2772   -7.9142
  473    2.0000    0.3809    0.2103    0.1707   -7.5259
  474    1.0000    0.0961    0.0267    0.0694   -9.0949
  475    2.0000    0.1054    0.0640    0.0414   -8.8593
  476    1.0000    0.1232    0.0606    0.0627   -9.6882
  477    1.0000    0.2661    0.1906    0.0756  -10.8622
  478    1.0000    0.4829    0.2377    0.2452  -11.3632
  479    1.0000    0.8560    0.3155    0.5405   -9.9755
  480    2.0000    1.6376    1.0196    0.6180   -7.2493
  481    3.0000    1.4158    0.9145    0.5013   -5.5070
  482    2.0000    2.5461    2.2141    0.3320   -6.9793
  483    2.0000    1.4324    1.1195    0.3130   -7.1375
  484    2.0000    0.5375    0.3552    0.1823   -8.2031
  485    1.0000    0.2076    0.1601    0.0475   -9.0337
  486    1.0000    0.1946    0.1863    0.0083   -9.1408
  487    2.0000    0.0650    0.0570    0.0080   -8.7471
  488    2.0000    0.0673    0.0490    0.0183   -8.8394
  489    1.0000    0.0422    0.0234    0.0188   -9.0011
  490    1.0000    0.1029    0.0769    0.0260   -9.0026
  491    2.0000    0.0985    0.0692    0.0293   -8.4554
  492    2.0000    0.1301    0.1033    0.0268   -8.1434
  493    2.0000    0.1408    0.0610    0.0798   -7.9822
  494    2.0000    0.2785    0.1190    0.1595   -7.8993
  495    2.0000    0.3164    0.1311    0.1853   -8.3665
  496    1.0000    0.2470    0.0160    0.2311   -9.3533
  497    1.0000    0.2483    0.0909    0.1574   -9.5523
  498    2.0000    0.4185    0.0781    0.3403   -8.6153
  499    2.0000    0.5787    0.1772    0.4015   -7.2035
  500    2.0000    0.2160    0.0706    0.1454   -7.4937
  501    2.0000    0.0890    0.0445    0.0446   -7.4293
  502    2.0000    0.1068    0.0778    0.0290   -8.3936
  503    2.0000    0.1717    0.0258    0.1459   -8.4019
  504    2.0000    0.7634    0.4039    0.3595   -7.7151
  505    1.0000    0.8057    0.3700    0.4357   -9.9815
  506    1.0000    0.5754    0.2188    0.3565  -10.9460
  507    0.0000    0.4664    0.1465    0.3198  -13.2888
  508    0.0000    0.3085    0.0666    0.2419  -12.6647
  509    1.0000    0.3269    0.1930    0.1339  -10.1319
  510    2.0000    0.0855    0.0210    0.0645   -8.9413
  511    1.0000    0.1161    0.0543    0.0618   -9.4666
  512    2.0000    0.3010    0.0863    0.2147   -7.9967
  513    2.0000    0.5360    0.0974    0.4386   -6.5630
  514    1.0000    0.4790    0.0397    0.4394   -9.4091
  515    0.0000    0.2276    0.0309    0.1967  -12.6004
  516    0.0000    0.0622    0.0216    0.0406  -14.1851
  517    0.0000    0.1135    0.0523    0.0612  -13.9963
  518    0.0000    0.3865    0.1512    0.2353  -12.1995
  519    2.0000    0.7067    0.2440    0.4627   -8.7596
  520    2.0000    0.8646    0.2509    0.6138   -6.8091
  521    2.0000    1.2103    0.7052    0.5051   -8.1776
  522    1.0000    1.1864    0.8891    0.2973  -10.3207
  523    1.0000    0.4115    0.0604    0.3511  -11.1331
  524    1.0000    0.9027    0.5088    0.3939   -9.6120
  525    2.0000    0.8511    0.4282    0.4229   -8.0260
  526    3.0000    0.7916    0.2874    0.5042   -5.4701
  527    2.0000    0.4721    0.0475    0.4246   -7.0039
  528    1.0000    0.4466    0.0341    0.4126   -9.1051
  529    1.0000    0.4417    0.0439    0.3979   -9.2021
  530    1.0000    0.4951    0.0753    0.4198   -9.0610
  531    2.0000    0.3714    0.0493    0.3221   -8.7569
  532    2.0000    0.3000    0.0403    0.2597   -8.1964
  533    2.0000    0.2803    0.1103    0.1700   -8.9141
  534    1.0000    0.2752    0.0957    0.1794  -10.3507
  535    1.0000    0.4230    0.2194    0.2036   -9.9763