11600
Atoms. Timestep     0
C3    0.0000    0.0000    0.0000
C4   10.0000    0.0000    0.0000
C3   20.0000    0.0000    0.0000
C3   30.0000    0.0000    0.0000
C3   40.0000    0.0000    0.0000
C4   50.0000    0.0000    0.0000
C4   60.0000    0.0000    0.0000
C4   70.0000    0.0000    0.0000
C4   80.0000    0.0000    0.0000
C4   90.0000    0.0000    0.0000
C4  100.0000    0.0000    0.0000
C3  110.0000    0.0000    0.0000
C3  120.0000    0.0000    0.0000
C3  130.0000    0.0000    0.0000
C4  140.0000    0.0000    0.0000
C4  150.0000    0.0000    0.0000
C3  160.0000    0.0000    0.0000
C3  170.0000    0.0000    0.0000
C4  180.0000    0.0000    0.0000
C3  190.0000    0.0000    0.0000
C4  200.0000    0.0000    0.0000
C4  210.0000    0.0000    0.0000
C4  220.0000    0.0000    0.0000
C4  230.0000    0.0000    0.0000
C4  240.0000    0.0000    0.0000
C4  250.0000    0.0000    0.0000
C4  260.0000    0.0000    0.0000
C4  270.0000    0.0000    0.0000
C4  280.0000    0.0000    0.0000
C3  290.0000    0.0000    0.0000
C4  300.0000    0.0000    0.0000
C3  310.0000    0.0000    0.0000
C3  320.0000    0.0000    0.0000
C3  330.0000    0.0000    0.0000
C3  340.0000    0.0000    0.0000
C3  350.0000    0.0000    0.0000
C4  360.0000    0.0000    0.0000
C4  370.0000    0.0000    0.0000
C4  380.0000    0.0000    0.0000
C4  390.0000    0.0000    0.0000
C3  400.0000    0.0000    0.0000
C3  410.0000    0.0000    0.0000
C3  420.0000    0.0000    0.0000
C3  430.0000    0.0000    0.0000
C3  440.0000    0.0000    0.0000
C4  450.0000    0.0000    0.0000
C4  460.0000    0.0000    0.0000
C4  470.0000    0.0000    0.0000
C4  480.0000    0.0000    0.0000
C4  490.0000    0.0000    0.0000
C3  500.0000    0.0000    0.0000
C4  510.0000    0.0000    0.0000
C4  520.0000    0.0000    0.0000
C3  530.0000    0.0000    0.0000
C3  540.0000    0.0000    0.0000
C3  550.0000    0.0000    0.0000
C3  560.0000    0.0000    0.0000
C4  570.0000    0.0000    0.0000
C4  580.0000    0.0000    0.0000
C4  590.0000    0.0000    0.0000
C4  600.0000    0.0000    0.0000
C4  610.0000    0.0000    0.0000
C4  620.0000    0.0000    0.0000
C4  630.0000    0.0000    0.0000
C4  640.0000    0.0000    0.0000
C3  650.0000    0.0000    0.0000
C3  660.0000    0.0000    0.0000
C3  670.0000    0.0000    0.0000
C4  680.0000    0.0000    0.0000
C4  690.0000    0.0000    0.0000
C4  700.0000    0.0000    0.0000
C4  710.0000    0.0000    0.0000
C4  720.0000    0.0000    0.0000
C4  730.0000    0.0000    0.0000
C4  740.0000    0.0000    0.0000
C4  750.0000    0.0000    0.0000
C4  760.0000    0.0000    0.0000
C4  770.0000    0.0000    0.0000
C3  780.0000    0.0000    0.0000
C3  790.0000    0.0000    0.0000
C4  800.0000    0.0000    0.0000
C4  810.0000    0.0000    0.0000
C3  820.0000    0.0000    0.0000
C2  830.0000    0.0000    0.0000
C3  840.0000    0.0000    0.0000
C3  850.0000    0.0000    0.0000
C3  860.0000    0.0000    0.0000
C3  870.0000    0.0000    0.0000
C3  880.0000    0.0000    0.0000
C3  890.0000    0.0000    0.0000
C4  900.0000    0.0000    0.0000
C4  910.0000    0.0000    0.0000
C4  920.0000    0.0000    0.0000
C3  930.0000    0.0000    0.0000
C3  940.0000    0.0000    0.0000
C3  950.0000    0.0000    0.0000
C3  960.0000    0.0000    0.0000
C3  970.0000    0.0000    0.0000
C4  980.0000    0.0000    0.0000
C4  990.0000    0.0000    0.0000
C4    5.0000    8.6600    0.0000
C3   15.0000    8.6600    0.0000
C3   25.0000    8.6600    0.0000
C3   35.0000    8.6600    0.0000
C3   45.0000    8.6600    0.0000
C3   55.0000    8.6600    0.0000
C3   65.0000    8.6600    0.0000
C3   75.0000    8.6600    0.0000
C3   85.0000    8.6600    0.0000
C3   95.0000    8.6600    0.0000
C3  105.0000    8.6600    0.0000
C3  115.0000    8.6600    0.0000
C2  125.0000    8.6600    0.0000
C3  135.0000    8.6600    0.0000
C4  145.0000    8.6600    0.0000
C3  155.0000    8.6600    0.0000
C4  165.0000    8.6600    0.0000
C3  175.0000    8.6600    0.0000
C3  185.0000    8.6600    0.0000
C3  195.0000    8.6600    0.0000
C3  205.0000    8.6600    0.0000
C4  215.0000    8.6600    0.0000
C4  225.0000    8.6600    0.0000
C4  235.0000    8.6600    0.0000
C4  245.0000    8.6600    0.0000
C4  255.0000    8.6600    0.0000
C4  265.0000    8.6600    0.0000
C4  275.0000    8.6600    0.0000
C3  285.0000    8.6600    0.0000
C3  295.0000    8.6600    0.0000
C3  305.0000    8.6600    0.0000
C3  315.0000    8.6600    0.0000
C3  325.0000    8.6600    0.0000
C2  335.0000    8.6600    0.0000
C3  345.0000    8.6600    0.0000
C3  355.0000    8.6600    0.0000
C3  365.0000    8.6600    0.0000
C4  375.0000    8.6600    0.0000
C3  385.0000    8.6600    0.0000
C3  395.0000    8.6600    0.0000
C3  405.0000    8.6600    0.0000
C3  415.0000    8.6600    0.0000
C3  425.0000    8.6600    0.0000
C3  435.0000    8.6600    0.0000
C4  445.0000    8.6600    0.0000
C4  455.0000    8.6600    0.0000
C4  465.0000    8.6600    0.0000
C4  475.0000    8.6600    0.0000
C4  485.0000    8.6600    0.0000
C4  495.0000    8.6600    0.0000
C4  505.0000    8.6600    0.0000
C4  515.0000    8.6600    0.0000
C3  525.0000    8.6600    0.0000
C3  535.0000    8.6600    0.0000
C4  545.0000    8.6600    0.0000
C4  555.0000    8.6600    0.0000
C4  565.0000    8.6600    0.0000
C4  575.0000    8.6600    0.0000
C4  585.0000    8.6600    0.0000
C4  595.0000    8.6600    0.0000
C4  605.0000    8.6600    0.0000
C4  615.0000    8.6600    0.0000
C4  625.0000    8.6600    0.0000
C4  635.0000    8.6600    0.0000
C4  645.0000    8.6600    0.0000
C3  655.0000    8.6600    0.0000
C3  665.0000    8.6600    0.0000
C3  675.0000    8.6600    0.0000
C3  685.0000    8.6600    0.0000
C3  695.0000    8.6600    0.0000
C3  705.0000    8.6600    0.0000
C3  715.0000    8.6600    0.0000
C3  725.0000    8.6600    0.0000
C3  735.0000    8.6600    0.0000
C3  745.0000    8.6600    0.0000
C4  755.0000    8.6600    0.0000
C4  765.0000    8.6600    0.0000
C4  775.0000    8.6600    0.0000
C3  785.0000    8.6600    0.0000
C3  795.0000    8.6600    0.0000
C4  805.0000    8.6600    0.0000
C3  815.0000    8.6600    0.0000
C2  825.0000    8.6600    0.0000
C2  835.0000    8.6600    0.0000
C3  845.0000    8.6600    0.0000
C3  855.0000    8.6600    0.0000
C3  865.0000    8.6600    0.0000
C3  875.0000    8.6600    0.0000
C3  885.0000    8.6600    0.0000
C3  895.0000    8.6600    0.0000
C3  905.0000    8.6600    0.0000
C4  915.0000    8.6600    0.0000
C3  925.0000    8.6600    0.0000
C3  935.0000    8.6600    0.0000
C3  945.0000    8.6600    0.0000
C3  955.0000    8.6600    0.0000
C3  965.0000    8.6600    0.0000
C3  975.0000    8.6600    0.0000
C4  985.0000    8.6600    0.0000
C4  995.0000    8.6600    0.0000
C3    0.0000   17.3200    0.0000
C3   10.0000   17.3200    0.0000
C3   20.0000   17.3200    0.0000
C3   30.0000   17.3200    0.0000
C3   40.0000   17.3200    0.0000
C2   50.0000   17.3200    0.0000
C2   60.0000   17.3200    0.0000
C2   70.0000   17.3200    0.0000
C2   80.0000   17.3200    0.0000
C3   90.0000   17.3200    0.0000
C3  100.0000   17.3200    0.0000
C2  110.0000   17.3200    0.0000
C2  120.0000   17.3200    0.0000
C3  130.0000   17.3200    0.0000
C4  140.0000   17.3200    0.0000
C2  150.0000   17.3200    0.0000
C2  160.0000   17.3200    0.0000
C2  170.0000   17.3200    0.0000
C2  180.0000   17.3200    0.0000
C2  190.0000   17.3200    0.0000
C3  200.0000   17.3200    0.0000
C4  210.0000   17.3200    0.0000
C4  220.0000   17.3200    0.0000
C3  230.0000   17.3200    0.0000
C4  240.0000   17.3200    0.0000
C4  250.0000   17.3200    0.0000
C4  260.0000   17.3200    0.0000
C4  270.0000   17.3200    0.0000
C3  280.0000   17.3200    0.0000
C3  290.0000   17.3200    0.0000
C3  300.0000   17.3200    0.0000
C2  310.0000   17.3200    0.0000
C2  320.0000   17.3200    0.0000
C2  330.0000   17.3200    0.0000
C2  340.0000   17.3200    0.0000
C3  350.0000   17.3200    0.0000
C3  360.0000   17.3200    0.0000
C3  370.0000   17.3200    0.0000
C3  380.0000   17.3200    0.0000
C3  390.0000   17.3200    0.0000
C3  400.0000   17.3200    0.0000
C3  410.0000   17.3200    0.0000
C4  420.0000   17.3200    0.0000
C4  430.0000   17.3200    0.0000
C4  440.0000   17.3200    0.0000
C4  450.0000   17.3200    0.0000
C3  460.0000   17.3200    0.0000
C3  470.0000   17.3200    0.0000
C4  480.0000   17.3200    0.0000
C3  490.0000   17.3200    0.0000
C4  500.0000   17.3200    0.0000
C4  510.0000   17.3200    0.0000
C3  520.0000   17.3200    0.0000
C3  530.0000   17.3200    0.0000
C4  540.0000   17.3200    0.0000
C4  550.0000   17.3200    0.0000
C3  560.0000   17.3200    0.0000
C4  570.0000   17.3200    0.0000
C4  580.0000   17.3200    0.0000
C4  590.0000   17.3200    0.0000
C4  600.0000   17.3200    0.0000
C3  610.0000   17.3200    0.0000
C3  620.0000   17.3200    0.0000
C3  630.0000   17.3200    0.0000
C3  640.0000   17.3200    0.0000
C4  650.0000   17.3200    0.0000
C4  660.0000   17.3200    0.0000
C3  670.0000   17.3200    0.0000
C2  680.0000   17.3200    0.0000
C2  690.0000   17.3200    0.0000
C2  700.0000   17.3200    0.0000
C3  710.0000   17.3200    0.0000
C3  720.0000   17.3200    0.0000
C3  730.0000   17.3200    0.0000
C3  740.0000   17.3200    0.0000
C3  750.0000   17.3200    0.0000
C3  760.0000   17.3200    0.0000
C3  770.0000   17.3200    0.0000
C4  780.0000   17.3200    0.0000
C3  790.0000   17.3200    0.0000
C3  800.0000   17.3200    0.0000
C3  810.0000   17.3200    0.0000
C2  820.0000   17.3200    0.0000
C2  830.0000   17.3200    0.0000
C3  840.0000   17.3200    0.0000
C3  850.0000   17.3200    0.0000
C3  860.0000   17.3200    0.0000
C2  870.0000   17.3200    0.0000
C3  880.0000   17.3200    0.0000
C3  890.0000   17.3200    0.0000
C3  900.0000   17.3200    0.0000
C3  910.0000   17.3200    0.0000
C3  920.0000   17.3200    0.0000
C3  930.0000   17.3200    0.0000
C3  940.0000   17.3200    0.0000
C2  950.0000   17.3200    0.0000
C2  960.0000   17.3200    0.0000
C3  970.0000   17.3200    0.0000
C3  980.0000   17.3200    0.0000
C4  990.0000   17.3200    0.0000
C3    5.0000   25.9800    0.0000
C3   15.0000   25.9800    0.0000
C2   25.0000   25.9800    0.0000
C3   35.0000   25.9800    0.0000
C2   45.0000   25.9800    0.0000
C2   55.0000   25.9800    0.0000
C2   65.0000   25.9800    0.0000
C2   75.0000   25.9800    0.0000
C2   85.0000   25.9800    0.0000
C3   95.0000   25.9800    0.0000
C2  105.0000   25.9800    0.0000
C2  115.0000   25.9800    0.0000
C3  125.0000   25.9800    0.0000
C3  135.0000   25.9800    0.0000
C2  145.0000   25.9800    0.0000
C1  155.0000   25.9800    0.0000
C1  165.0000   25.9800    0.0000
C1  175.0000   25.9800    0.0000
C2  185.0000   25.9800    0.0000
C3  195.0000   25.9800    0.0000
C4  205.0000   25.9800    0.0000
C3  215.0000   25.9800    0.0000
C4  225.0000   25.9800    0.0000
C4  235.0000   25.9800    0.0000
C3  245.0000   25.9800    0.0000
C4  255.0000   25.9800    0.0000
C4  265.0000   25.9800    0.0000
C3  275.0000   25.9800    0.0000
C3  285.0000   25.9800    0.0000
C3  295.0000   25.9800    0.0000
C3  305.0000   25.9800    0.0000
C3  315.0000   25.9800    0.0000
C2  325.0000   25.9800    0.0000
C2  335.0000   25.9800    0.0000
C3  345.0000   25.9800    0.0000
C3  355.0000   25.9800    0.0000
C3  365.0000   25.9800    0.0000
C3  375.0000   25.9800    0.0000
C3  385.0000   25.9800    0.0000
C3  395.0000   25.9800    0.0000
C3  405.0000   25.9800    0.0000
C4  415.0000   25.9800    0.0000
C4  425.0000   25.9800    0.0000
C4  435.0000   25.9800    0.0000
C3  445.0000   25.9800    0.0000
C3  455.0000   25.9800    0.0000
C4  465.0000   25.9800    0.0000
C3  475.0000   25.9800    0.0000
C3  485.0000   25.9800    0.0000
C3  495.0000   25.9800    0.0000
C3  505.0000   25.9800    0.0000
C4  515.0000   25.9800    0.0000
C4  525.0000   25.9800    0.0000
C3  535.0000   25.9800    0.0000
C4  545.0000   25.9800    0.0000
C3  555.0000   25.9800    0.0000
C3  565.0000   25.9800    0.0000
C3  575.0000   25.9800    0.0000
C3  585.0000   25.9800    0.0000
C3  595.0000   25.9800    0.0000
C3  605.0000   25.9800    0.0000
C3  615.0000   25.9800    0.0000
C3  625.0000   25.9800    0.0000
C3  635.0000   25.9800    0.0000
C3  645.0000   25.9800    0.0000
C3  655.0000   25.9800    0.0000
C4  665.0000   25.9800    0.0000
C3  675.0000   25.9800    0.0000
C3  685.0000   25.9800    0.0000
C2  695.0000   25.9800    0.0000
C2  705.0000   25.9800    0.0000
C3  715.0000   25.9800    0.0000
C3  725.0000   25.9800    0.0000
C3  735.0000   25.9800    0.0000
C2  745.0000   25.9800    0.0000
C3  755.0000   25.9800    0.0000
C2  765.0000   25.9800    0.0000
C3  775.0000   25.9800    0.0000
C3  785.0000   25.9800    0.0000
C4  795.0000   25.9800    0.0000
C3  805.0000   25.9800    0.0000
C3  815.0000   25.9800    0.0000
C3  825.0000   25.9800    0.0000
C3  835.0000   25.9800    0.0000
C2  845.0000   25.9800    0.0000
C2  855.0000   25.9800    0.0000
C2  865.0000   25.9800    0.0000
C2  875.0000   25.9800    0.0000
C2  885.0000   25.9800    0.0000
C3  895.0000   25.9800    0.0000
C3  905.0000   25.9800    0.0000
C3  915.0000   25.9800    0.0000
C3  925.0000   25.9800    0.0000
C3  935.0000   25.9800    0.0000
C2  945.0000   25.9800    0.0000
C2  955.0000   25.9800    0.0000
C2  965.0000   25.9800    0.0000
C3  975.0000   25.9800    0.0000
C3  985.0000   25.9800    0.0000
C4  995.0000   25.9800    0.0000
C3    0.0000   34.6400    0.0000
C3   10.0000   34.6400    0.0000
C3   20.0000   34.6400    0.0000
C3   30.0000   34.6400    0.0000
C2   40.0000   34.6400    0.0000
C2   50.0000   34.6400    0.0000
C1   60.0000   34.6400    0.0000
C1   70.0000   34.6400    0.0000
C2   80.0000   34.6400    0.0000
C2   90.0000   34.6400    0.0000
C3  100.0000   34.6400    0.0000
C2  110.0000   34.6400    0.0000
C3  120.0000   34.6400    0.0000
C3  130.0000   34.6400    0.0000
C2  140.0000   34.6400    0.0000
C1  150.0000   34.6400    0.0000
C1  160.0000   34.6400    0.0000
C1  170.0000   34.6400    0.0000
C1  180.0000   34.6400    0.0000
C3  190.0000   34.6400    0.0000
C3  200.0000   34.6400    0.0000
C3  210.0000   34.6400    0.0000
C4  220.0000   34.6400    0.0000
C4  230.0000   34.6400    0.0000
C3  240.0000   34.6400    0.0000
C4  250.0000   34.6400    0.0000
C4  260.0000   34.6400    0.0000
C4  270.0000   34.6400    0.0000
C3  280.0000   34.6400    0.0000
C4  290.0000   34.6400    0.0000
C3  300.0000   34.6400    0.0000
C3  310.0000   34.6400    0.0000
C3  320.0000   34.6400    0.0000
C2  330.0000   34.6400    0.0000
C2  340.0000   34.6400    0.0000
C2  350.0000   34.6400    0.0000
C3  360.0000   34.6400    0.0000
C3  370.0000   34.6400    0.0000
C3  380.0000   34.6400    0.0000
C3  390.0000   34.6400    0.0000
C3  400.0000   34.6400    0.0000
C3  410.0000   34.6400    0.0000
C3  420.0000   34.6400    0.0000
C4  430.0000   34.6400    0.0000
C3  440.0000   34.6400    0.0000
C3  450.0000   34.6400    0.0000
C3  460.0000   34.6400    0.0000
C3  470.0000   34.6400    0.0000
C4  480.0000   34.6400    0.0000
C3  490.0000   34.6400    0.0000
C3  500.0000   34.6400    0.0000
C4  510.0000   34.6400    0.0000
C4  520.0000   34.6400    0.0000
C3  530.0000   34.6400    0.0000
C3  540.0000   34.6400    0.0000
C4  550.0000   34.6400    0.0000
C3  560.0000   34.6400    0.0000
C3  570.0000   34.6400    0.0000
C4  580.0000   34.6400    0.0000
C3  590.0000   34.6400    0.0000
C2  600.0000   34.6400    0.0000
C2  610.0000   34.6400    0.0000
C2  620.0000   34.6400    0.0000
C2  630.0000   34.6400    0.0000
C2  640.0000   34.6400    0.0000
C3  650.0000   34.6400    0.0000
C4  660.0000   34.6400    0.0000
C3  670.0000   34.6400    0.0000
C3  680.0000   34.6400    0.0000
C3  690.0000   34.6400    0.0000
C3  700.0000   34.6400    0.0000
C3  710.0000   34.6400    0.0000
C3  720.0000   34.6400    0.0000
C2  730.0000   34.6400    0.0000
C3  740.0000   34.6400    0.0000
C2  750.0000   34.6400    0.0000
C2  760.0000   34.6400    0.0000
C2  770.0000   34.6400    0.0000
C2  780.0000   34.6400    0.0000
C3  790.0000   34.6400    0.0000
C4  800.0000   34.6400    0.0000
C3  810.0000   34.6400    0.0000
C3  820.0000   34.6400    0.0000
C3  830.0000   34.6400    0.0000
C2  840.0000   34.6400    0.0000
C2  850.0000   34.6400    0.0000
C3  860.0000   34.6400    0.0000
C3  870.0000   34.6400    0.0000
C2  880.0000   34.6400    0.0000
C2  890.0000   34.6400    0.0000
C3  900.0000   34.6400    0.0000
C3  910.0000   34.6400    0.0000
C3  920.0000   34.6400    0.0000
C3  930.0000   34.6400    0.0000
C3  940.0000   34.6400    0.0000
C2  950.0000   34.6400    0.0000
C2  960.0000   34.6400    0.0000
C3  970.0000   34.6400    0.0000
C3  980.0000   34.6400    0.0000
C3  990.0000   34.6400    0.0000
C3    5.0000   43.3000    0.0000
C3   15.0000   43.3000    0.0000
C3   25.0000   43.3000    0.0000
C3   35.0000   43.3000    0.0000
C2   45.0000   43.3000    0.0000
C2   55.0000   43.3000    0.0000
C1   65.0000   43.3000    0.0000
C1   75.0000   43.3000    0.0000
C2   85.0000   43.3000    0.0000
C3   95.0000   43.3000    0.0000
C2  105.0000   43.3000    0.0000
C3  115.0000   43.3000    0.0000
C3  125.0000   43.3000    0.0000
C2  135.0000   43.3000    0.0000
C1  145.0000   43.3000    0.0000
C1  155.0000   43.3000    0.0000
C1  165.0000   43.3000    0.0000
C1  175.0000   43.3000    0.0000
C3  185.0000   43.3000    0.0000
C3  195.0000   43.3000    0.0000
C3  205.0000   43.3000    0.0000
C2  215.0000   43.3000    0.0000
C2  225.0000   43.3000    0.0000
C2  235.0000   43.3000    0.0000
C3  245.0000   43.3000    0.0000
C4  255.0000   43.3000    0.0000
C3  265.0000   43.3000    0.0000
C2  275.0000   43.3000    0.0000
C2  285.0000   43.3000    0.0000
C2  295.0000   43.3000    0.0000
C3  305.0000   43.3000    0.0000
C3  315.0000   43.3000    0.0000
C3  325.0000   43.3000    0.0000
C2  335.0000   43.3000    0.0000
C2  345.0000   43.3000    0.0000
C2  355.0000   43.3000    0.0000
C3  365.0000   43.3000    0.0000
C3  375.0000   43.3000    0.0000
C3  385.0000   43.3000    0.0000
C3  395.0000   43.3000    0.0000
C3  405.0000   43.3000    0.0000
C3  415.0000   43.3000    0.0000
C3  425.0000   43.3000    0.0000
C3  435.0000   43.3000    0.0000
C4  445.0000   43.3000    0.0000
C3  455.0000   43.3000    0.0000
C3  465.0000   43.3000    0.0000
C3  475.0000   43.3000    0.0000
C3  485.0000   43.3000    0.0000
C3  495.0000   43.3000    0.0000
C4  505.0000   43.3000    0.0000
C4  515.0000   43.3000    0.0000
C4  525.0000   43.3000    0.0000
C4  535.0000   43.3000    0.0000
C2  545.0000   43.3000    0.0000
C3  555.0000   43.3000    0.0000
C2  565.0000   43.3000    0.0000
C2  575.0000   43.3000    0.0000
C3  585.0000   43.3000    0.0000
C2  595.0000   43.3000    0.0000
C2  605.0000   43.3000    0.0000
C2  615.0000   43.3000    0.0000
C2  625.0000   43.3000    0.0000
C2  635.0000   43.3000    0.0000
C2  645.0000   43.3000    0.0000
C2  655.0000   43.3000    0.0000
C2  665.0000   43.3000    0.0000
C3  675.0000   43.3000    0.0000
C3  685.0000   43.3000    0.0000
C3  695.0000   43.3000    0.0000
C3  705.0000   43.3000    0.0000
C4  715.0000   43.3000    0.0000
C3  725.0000   43.3000    0.0000
C2  735.0000   43.3000    0.0000
C2  745.0000   43.3000    0.0000
C2  755.0000   43.3000    0.0000
C2  765.0000   43.3000    0.0000
C1  775.0000   43.3000    0.0000
C2  785.0000   43.3000    0.0000
C2  795.0000   43.3000    0.0000
C3  805.0000   43.3000    0.0000
C4  815.0000   43.3000    0.0000
C3  825.0000   43.3000    0.0000
C2  835.0000   43.3000    0.0000
C3  845.0000   43.3000    0.0000
C2  855.0000   43.3000    0.0000
C3  865.0000   43.3000    0.0000
C2  875.0000   43.3000    0.0000
C2  885.0000   43.3000    0.0000
C2  895.0000   43.3000    0.0000
C3  905.0000   43.3000    0.0000
C3  915.0000   43.3000    0.0000
C3  925.0000   43.3000    0.0000
C3  935.0000   43.3000    0.0000
C3  945.0000   43.3000    0.0000
C2  955.0000   43.3000    0.0000
C3  965.0000   43.3000    0.0000
C3  975.0000   43.3000    0.0000
C3  985.0000   43.3000    0.0000
C3  995.0000   43.3000    0.0000
C3    0.0000   51.9600    0.0000
C3   10.0000   51.9600    0.0000
C3   20.0000   51.9600    0.0000
C3   30.0000   51.9600    0.0000
C3   40.0000   51.9600    0.0000
C2   50.0000   51.9600    0.0000
C1   60.0000   51.9600    0.0000
C1   70.0000   51.9600    0.0000
C2   80.0000   51.9600    0.0000
C2   90.0000   51.9600    0.0000
C2  100.0000   51.9600    0.0000
C3  110.0000   51.9600    0.0000
C3  120.0000   51.9600    0.0000
C2  130.0000   51.9600    0.0000
C1  140.0000   51.9600    0.0000
C1  150.0000   51.9600    0.0000
C1  160.0000   51.9600    0.0000
C1  170.0000   51.9600    0.0000
C2  180.0000   51.9600    0.0000
C2  190.0000   51.9600    0.0000
C2  200.0000   51.9600    0.0000
C2  210.0000   51.9600    0.0000
C1  220.0000   51.9600    0.0000
C2  230.0000   51.9600    0.0000
C3  240.0000   51.9600    0.0000
C4  250.0000   51.9600    0.0000
C3  260.0000   51.9600    0.0000
C2  270.0000   51.9600    0.0000
C2  280.0000   51.9600    0.0000
C3  290.0000   51.9600    0.0000
C3  300.0000   51.9600    0.0000
C2  310.0000   51.9600    0.0000
C2  320.0000   51.9600    0.0000
C2  330.0000   51.9600    0.0000
C2  340.0000   51.9600    0.0000
C2  350.0000   51.9600    0.0000
C2  360.0000   51.9600    0.0000
C3  370.0000   51.9600    0.0000
C3  380.0000   51.9600    0.0000
C3  390.0000   51.9600    0.0000
C3  400.0000   51.9600    0.0000
C4  410.0000   51.9600    0.0000
C3  420.0000   51.9600    0.0000
C3  430.0000   51.9600    0.0000
C3  440.0000   51.9600    0.0000
C3  450.0000   51.9600    0.0000
C3  460.0000   51.9600    0.0000
C3  470.0000   51.9600    0.0000
C3  480.0000   51.9600    0.0000
C3  490.0000   51.9600    0.0000
C3  500.0000   51.9600    0.0000
C4  510.0000   51.9600    0.0000
C4  520.0000   51.9600    0.0000
C2  530.0000   51.9600    0.0000
C3  540.0000   51.9600    0.0000
C2  550.0000   51.9600    0.0000
C3  560.0000   51.9600    0.0000
C3  570.0000   51.9600    0.0000
C3  580.0000   51.9600    0.0000
C3  590.0000   51.9600    0.0000
C3  600.0000   51.9600    0.0000
C2  610.0000   51.9600    0.0000
C2  620.0000   51.9600    0.0000
C2  630.0000   51.9600    0.0000
C2  640.0000   51.9600    0.0000
C2  650.0000   51.9600    0.0000
C4  660.0000   51.9600    0.0000
C3  670.0000   51.9600    0.0000
C2  680.0000   51.9600    0.0000
C2  690.0000   51.9600    0.0000
C4  700.0000   51.9600    0.0000
C3  710.0000   51.9600    0.0000
C3  720.0000   51.9600    0.0000
C3  730.0000   51.9600    0.0000
C2  740.0000   51.9600    0.0000
C2  750.0000   51.9600    0.0000
C2  760.0000   51.9600    0.0000
C2  770.0000   51.9600    0.0000
C1  780.0000   51.9600    0.0000
C1  790.0000   51.9600    0.0000
C3  800.0000   51.9600    0.0000
C3  810.0000   51.9600    0.0000
C4  820.0000   51.9600    0.0000
C3  830.0000   51.9600    0.0000
C3  840.0000   51.9600    0.0000
C3  850.0000   51.9600    0.0000
C2  860.0000   51.9600    0.0000
C2  870.0000   51.9600    0.0000
C2  880.0000   51.9600    0.0000
C2  890.0000   51.9600    0.0000
C2  900.0000   51.9600    0.0000
C3  910.0000   51.9600    0.0000
C3  920.0000   51.9600    0.0000
C3  930.0000   51.9600    0.0000
C3  940.0000   51.9600    0.0000
C3  950.0000   51.9600    0.0000
C3  960.0000   51.9600    0.0000
C3  970.0000   51.9600    0.0000
C2  980.0000   51.9600    0.0000
C3  990.0000   51.9600    0.0000
C3    5.0000   60.6200    0.0000
C3   15.0000   60.6200    0.0000
C3   25.0000   60.6200    0.0000
C3   35.0000   60.6200    0.0000
C2   45.0000   60.6200    0.0000
C1   55.0000   60.6200    0.0000
C1   65.0000   60.6200    0.0000
C1   75.0000   60.6200    0.0000
C2   85.0000   60.6200    0.0000
C3   95.0000   60.6200    0.0000
C3  105.0000   60.6200    0.0000
C3  115.0000   60.6200    0.0000
C2  125.0000   60.6200    0.0000
C1  135.0000   60.6200    0.0000
C1  145.0000   60.6200    0.0000
C1  155.0000   60.6200    0.0000
C1  165.0000   60.6200    0.0000
C2  175.0000   60.6200    0.0000
C2  185.0000   60.6200    0.0000
C2  195.0000   60.6200    0.0000
C1  205.0000   60.6200    0.0000
C1  215.0000   60.6200    0.0000
C1  225.0000   60.6200    0.0000
C2  235.0000   60.6200    0.0000
C4  245.0000   60.6200    0.0000
C3  255.0000   60.6200    0.0000
C2  265.0000   60.6200    0.0000
C2  275.0000   60.6200    0.0000
C2  285.0000   60.6200    0.0000
C2  295.0000   60.6200    0.0000
C2  305.0000   60.6200    0.0000
C2  315.0000   60.6200    0.0000
C2  325.0000   60.6200    0.0000
C1  335.0000   60.6200    0.0000
C2  345.0000   60.6200    0.0000
C2  355.0000   60.6200    0.0000
C2  365.0000   60.6200    0.0000
C3  375.0000   60.6200    0.0000
C3  385.0000   60.6200    0.0000
C2  395.0000   60.6200    0.0000
C3  405.0000   60.6200    0.0000
C3  415.0000   60.6200    0.0000
C3  425.0000   60.6200    0.0000
C3  435.0000   60.6200    0.0000
C4  445.0000   60.6200    0.0000
C4  455.0000   60.6200    0.0000
C3  465.0000   60.6200    0.0000
C3  475.0000   60.6200    0.0000
C3  485.0000   60.6200    0.0000
C3  495.0000   60.6200    0.0000
C4  505.0000   60.6200    0.0000
C3  515.0000   60.6200    0.0000
C4  525.0000   60.6200    0.0000
C4  535.0000   60.6200    0.0000
C3  545.0000   60.6200    0.0000
C3  555.0000   60.6200    0.0000
C2  565.0000   60.6200    0.0000
C3  575.0000   60.6200    0.0000
C3  585.0000   60.6200    0.0000
C3  595.0000   60.6200    0.0000
C3  605.0000   60.6200    0.0000
C4  615.0000   60.6200    0.0000
C3  625.0000   60.6200    0.0000
C3  635.0000   60.6200    0.0000
C2  645.0000   60.6200    0.0000
C2  655.0000   60.6200    0.0000
C2  665.0000   60.6200    0.0000
C2  675.0000   60.6200    0.0000
C2  685.0000   60.6200    0.0000
C2  695.0000   60.6200    0.0000
C3  705.0000   60.6200    0.0000
C4  715.0000   60.6200    0.0000
C3  725.0000   60.6200    0.0000
C3  735.0000   60.6200    0.0000
C3  745.0000   60.6200    0.0000
C3  755.0000   60.6200    0.0000
C2  765.0000   60.6200    0.0000
C1  775.0000   60.6200    0.0000
C2  785.0000   60.6200    0.0000
C2  795.0000   60.6200    0.0000
C3  805.0000   60.6200    0.0000
C2  815.0000   60.6200    0.0000
C3  825.0000   60.6200    0.0000
C4  835.0000   60.6200    0.0000
C4  845.0000   60.6200    0.0000
C2  855.0000   60.6200    0.0000
C2  865.0000   60.6200    0.0000
C2  875.0000   60.6200    0.0000
C2  885.0000   60.6200    0.0000
C2  895.0000   60.6200    0.0000
C2  905.0000   60.6200    0.0000
C3  915.0000   60.6200    0.0000
C3  925.0000   60.6200    0.0000
C3  935.0000   60.6200    0.0000
C3  945.0000   60.6200    0.0000
C3  955.0000   60.6200    0.0000
C3  965.0000   60.6200    0.0000
C2  975.0000   60.6200    0.0000
C3  985.0000   60.6200    0.0000
C3  995.0000   60.6200    0.0000
C3    0.0000   69.2800    0.0000
C3   10.0000   69.2800    0.0000
C3   20.0000   69.2800    0.0000
C3   30.0000   69.2800    0.0000
C2   40.0000   69.2800    0.0000
C1   50.0000   69.2800    0.0000
C1   60.0000   69.2800    0.0000
C1   70.0000   69.2800    0.0000
C2   80.0000   69.2800    0.0000
C3   90.0000   69.2800    0.0000
C3  100.0000   69.2800    0.0000
C3  110.0000   69.2800    0.0000
C2  120.0000   69.2800    0.0000
C1  130.0000   69.2800    0.0000
C1  140.0000   69.2800    0.0000
C1  150.0000   69.2800    0.0000
C1  160.0000   69.2800    0.0000
C2  170.0000   69.2800    0.0000
C1  180.0000   69.2800    0.0000
C1  190.0000   69.2800    0.0000
C1  200.0000   69.2800    0.0000
C1  210.0000   69.2800    0.0000
C1  220.0000   69.2800    0.0000
C2  230.0000   69.2800    0.0000
C4  240.0000   69.2800    0.0000
C3  250.0000   69.2800    0.0000
C4  260.0000   69.2800    0.0000
C3  270.0000   69.2800    0.0000
C2  280.0000   69.2800    0.0000
C2  290.0000   69.2800    0.0000
C2  300.0000   69.2800    0.0000
C1  310.0000   69.2800    0.0000
C2  320.0000   69.2800    0.0000
C2  330.0000   69.2800    0.0000
C1  340.0000   69.2800    0.0000
C2  350.0000   69.2800    0.0000
C2  360.0000   69.2800    0.0000
C2  370.0000   69.2800    0.0000
C2  380.0000   69.2800    0.0000
C3  390.0000   69.2800    0.0000
C2  400.0000   69.2800    0.0000
C2  410.0000   69.2800    0.0000
C4  420.0000   69.2800    0.0000
C2  430.0000   69.2800    0.0000
C2  440.0000   69.2800    0.0000
C2  450.0000   69.2800    0.0000
C2  460.0000   69.2800    0.0000
C3  470.0000   69.2800    0.0000
C4  480.0000   69.2800    0.0000
C4  490.0000   69.2800    0.0000
C3  500.0000   69.2800    0.0000
C4  510.0000   69.2800    0.0000
C3  520.0000   69.2800    0.0000
C3  530.0000   69.2800    0.0000
C3  540.0000   69.2800    0.0000
C2  550.0000   69.2800    0.0000
C2  560.0000   69.2800    0.0000
C2  570.0000   69.2800    0.0000
C2  580.0000   69.2800    0.0000
C2  590.0000   69.2800    0.0000
C4  600.0000   69.2800    0.0000
C3  610.0000   69.2800    0.0000
C2  620.0000   69.2800    0.0000
C3  630.0000   69.2800    0.0000
C3  640.0000   69.2800    0.0000
C3  650.0000   69.2800    0.0000
C3  660.0000   69.2800    0.0000
C3  670.0000   69.2800    0.0000
C2  680.0000   69.2800    0.0000
C2  690.0000   69.2800    0.0000
C3  700.0000   69.2800    0.0000
C3  710.0000   69.2800    0.0000
C3  720.0000   69.2800    0.0000
C3  730.0000   69.2800    0.0000
C3  740.0000   69.2800    0.0000
C2  750.0000   69.2800    0.0000
C2  760.0000   69.2800    0.0000
C1  770.0000   69.2800    0.0000
C1  780.0000   69.2800    0.0000
C1  790.0000   69.2800    0.0000
C1  800.0000   69.2800    0.0000
C1  810.0000   69.2800    0.0000
C2  820.0000   69.2800    0.0000
C3  830.0000   69.2800    0.0000
C4  840.0000   69.2800    0.0000
C3  850.0000   69.2800    0.0000
C3  860.0000   69.2800    0.0000
C2  870.0000   69.2800    0.0000
C3  880.0000   69.2800    0.0000
C3  890.0000   69.2800    0.0000
C3  900.0000   69.2800    0.0000
C2  910.0000   69.2800    0.0000
C3  920.0000   69.2800    0.0000
C3  930.0000   69.2800    0.0000
C3  940.0000   69.2800    0.0000
C3  950.0000   69.2800    0.0000
C3  960.0000   69.2800    0.0000
C2  970.0000   69.2800    0.0000
C2  980.0000   69.2800    0.0000
C3  990.0000   69.2800    0.0000
C3    5.0000   77.9400    0.0000
C3   15.0000   77.9400    0.0000
C3   25.0000   77.9400    0.0000
C3   35.0000   77.9400    0.0000
C1   45.0000   77.9400    0.0000
C1   55.0000   77.9400    0.0000
C2   65.0000   77.9400    0.0000
C2   75.0000   77.9400    0.0000