ITEM: TIMESTEP
2100000
ITEM: NUMBER OF ATOMS
11600
ITEM: BOX BOUNDS ss ss pp
2.5128133657125608e+02 7.4209800917774805e+02
2.5344245449138134e+02 7.4462596494363481e+02
-2.0000000000000000e+02 2.0000000000000000e+02
ITEM: ATOMS id xu yu zu c_k c_p c_bo c_di 
357 468.232 353.875 -162.773 0.0261721 -5.2835 0.718495 0.417299 
358 475.453 347.266 -161.114 0.0321086 -4.56057 0.990131 0.536666 
260 492.132 342.618 -162.018 0.0913898 -2.41274 2.43334 0.444346 
259 484.342 347.988 -165.777 0.0549202 6.80186 3.75575 0.416315 
159 493.28 352.244 -164.3 0.0948927 -2.6134 0.673184 0.659145 
258 477.05 354.854 -167.389 0.0163238 -3.42078 1.7265 0.32382 
355 454.412 367.884 -165.307 0.068247 -3.93948 1.23378 0.737443 
354 447.682 374.722 -162.691 0.0147195 -4.71146 0.776327 0.520279 
356 461.16 360.702 -164.141 0.00560767 -4.35067 1.45688 0.571539 
257 470.319 362.358 -167.653 0.00909554 -4.49792 1.49498 0.387116 
256 464.065 370.151 -166.071 0.0533506 3.04174 2.95456 0.532605 
156 473.687 370.755 -163.448 0.010745 -5.4072 0.221314 0.30727 
158 486.477 356.982 -169.771 0.0390763 -3.59516 0.758726 0.505772 
157 480.051 364.415 -167.868 0.0376617 -4.73129 0.26512 0.346337 
58 489.67 365.427 -165.407 0.00262721 -1.51206 0.169817 0.33054 
59 496.12 359.601 -170.407 0.0228919 -2.77751 0.204238 0.380991 
255 457.496 376.832 -162.074 0.0167319 2.00176 2.961 0.334067 
1053 430.927 330.824 -143.767 0.0417867 -4.87762 0.221184 0.595176 
1054 440.89 331.515 -144.439 0.0620577 -5.72329 0.048415 0.2985 
1055 450.515 333.762 -142.936 0.0164051 -5.77242 0.0444187 0.346555 
1156 466.518 328.29 -140.092 0.0578339 -5.69836 0.0493816 0.333919 
1155 456.674 326.443 -140.005 0.0147512 -5.8633 0.0391581 0.391347 
952 425.101 338.819 -145.479 0.0288563 -3.34583 1.91083 0.530797 
853 429.322 347.186 -148.823 0.056636 -5.00536 0.854487 0.421607 
852 420.105 347.485 -144.83 0.0279275 -3.43806 0.678419 0.373987 
752 423.39 354.948 -150.526 0.0321612 -3.13041 2.36951 0.564867 
953 435.125 339.355 -146.771 0.00572047 0.023098 0.975001 0.412134 
854 438.117 348.59 -144.271 0.140667 -7.63268 0.0981898 0.12819 
954 443.448 340.668 -141.36 0.0191935 -7.25031 0.0435188 0.239406 
1056 460.011 335.862 -140.498 0.0574345 -6.25286 0.106387 0.270184 
458 471.449 352.381 -153.428 0.0479035 -7.16642 0.83038 0.362693 
359 483.194 342.011 -157.719 0.0645773 -4.50315 1.18046 0.590664 
360 490.868 337.051 -153.748 0.0870666 -6.04743 0.411629 0.382887 
461 493.093 338.34 -144.061 0.00535207 -9.005 0.0846104 0.283305 
460 486.642 344.483 -148.622 0.118119 -7.54503 0.241912 0.387794 
459 481.283 351.026 -153.94 0.040537 2.63918 1.45279 0.573141 
560 492.243 347.859 -141.072 0.0891069 -9.61809 0.176154 0.361397 
559 487.367 354.343 -146.887 0.0120342 -7.08645 1.48184 0.360877 
651 415.98 366.475 -140.85 0.0389787 -6.57293 0.0524704 0.274084 
751 416.631 356.837 -143.462 0.0399267 -4.76166 0.706333 0.255546 
753 431.271 355.861 -144.257 0.0730487 -4.43007 1.05769 0.453761 
653 429.162 362.96 -150.913 0.0249157 5.21659 1.58825 0.819179 
652 419.297 364.058 -149.955 0.0198846 -4.89762 0.492956 0.49591 
552 424.745 371.011 -154.751 0.0236093 -3.68752 1.45422 0.694524 
553 433.765 371.739 -150.363 0.0364526 7.00019 0.756797 1.01473 
551 418.917 373.665 -147.169 0.0199756 -3.36382 2.16586 0.390522 
654 434.91 365.078 -142.995 0.0133343 -8.35829 0.0484536 0.668748 
454 439.333 371.036 -158.594 0.00250854 -5.39921 0.337936 0.644988 
455 447.772 365.782 -158.184 0.0373836 -5.43889 1.42309 0.638109 
554 441.424 365.388 -150.576 0.0720082 4.75418 0.886935 0.69109 
655 444.698 365.919 -141.17 0.00822666 -7.3144 0.111195 0.564597 
555 450.984 367.498 -148.824 0.00705149 -9.76332 0.392487 0.489653 
456 457.431 365.176 -156.074 0.00488605 5.07695 1.38449 0.723842 
457 462.586 356.724 -155.038 0.0562238 -7.82122 0.23863 0.352512 
557 468.384 359.823 -147.484 0.0605107 -9.43387 0.0592035 0.321847 
556 458.492 361.137 -147.03 0.023858 -7.55572 0.120586 0.575227 
56 474.964 372.331 -153.667 0.0387477 -7.17281 0.123053 0.0564447 
155 466.704 375.72 -158.2 0.0367191 -4.937 0.427349 0.167105 
658 474.169 363.068 -140.007 0.091869 -8.26336 0.0494593 0.303761 
57 482.512 368.672 -159.173 0.0277914 -5.99327 0.165645 0.167055 
558 477.487 355.948 -146.185 0.0634851 -8.55513 0.73089 0.257049 
453 431.55 377.27 -158.398 0.0388 -4.10594 0.911833 0.693484 
452 424.997 380.543 -151.476 0.0119398 7.96633 3.18908 0.410172 
451 420.568 382.327 -142.676 0.00844473 -4.96097 1.19669 0.40107 
351 427.466 388.629 -146.081 0.0328504 -5.99532 0.309534 0.203552 
352 433.97 385.127 -152.824 0.0203822 -1.77783 1.87281 0.197827 
251 429.984 396.491 -140.463 0.0211105 -5.19372 0.0519732 0.351619 
353 440.855 380.923 -158.805 0.00419317 -4.53994 0.375566 0.430517 
254 450.642 382.263 -156.961 0.0284146 -5.21328 1.49585 0.218036 
252 436.837 392.142 -146.297 0.00370426 -5.48502 0.0203511 0.232002 
153 452.005 383.814 -147.168 0.0186765 -6.62281 0.102499 0.0625056 
253 443.719 387.189 -151.619 0.0680219 -6.01469 0.295327 0.152823 
152 445.255 389.027 -141.907 0.00879202 -5.47069 0.0589789 0.0950746 
55 467.791 376.737 -148.317 0.00200918 -6.84916 0.0519133 0.00871793 
154 459.357 379.81 -152.699 0.0310213 -6.49059 0.222589 0.0956027 
54 460.526 380.9 -142.838 0.019471 -6.45025 0.0260017 0.00311211 
1655 453.682 292.496 -121.826 0.0105675 -7.35114 0.500036 0.201371 
1657 472.016 292.956 -125.263 0.0450392 -4.01073 0.197271 0.496864 
1658 481.257 290.85 -128.365 0.0455807 -4.40545 0.287642 0.817252 
1659 491.077 292.015 -127.053 0.0581804 -2.76941 0.950077 0.811502 
1455 452.244 308.299 -127.047 0.0419259 -8.51303 0.262635 0.168652 
1454 442.8 308.905 -123.735 0.0797752 -8.12651 0.184226 0.334682 
1554 447.491 300.096 -123.889 0.00642564 -6.74185 1.37526 0.146218 
1555 456.44 299.382 -128.525 0.0226872 -5.18609 1.09226 0.328517 
1656 463.053 295.848 -121.933 0.0293593 -6.8055 0.481242 0.435576 
1556 466.201 298.734 -130.968 0.0565343 -4.91878 0.908287 0.371119 
1457 471.823 306.978 -131.069 0.00607127 -6.26646 0.114726 0.300259 
1456 461.961 307.694 -129.49 0.0174315 -5.75051 0.223435 0.282046 
1557 476.092 298.1 -132.864 0.0574263 -2.05229 2.50594 0.318628 
1558 486.24 297.707 -133.758 0.0336064 63.3461 57.3076 0.570461 
1758 484.573 297.259 -121.449 0.00491805 14.4496 1.39922 1.00024 
1458 481.741 306 -130.569 0.0783255 -0.668309 0.733773 0.346452 
1459 491.754 305.501 -130.396 0.0291746 -2.82833 1.43979 0.305763 
1358 487.075 313.835 -133.508 0.0231982 -5.49797 0.746216 0.367056 
1359 494.922 314.536 -127.367 0.0561572 -7.77153 0.233815 0.126375 
1352 429.079 314.858 -122.887 0.0223036 -5.90165 0.247078 0.615105 
1152 427.69 326.608 -135.269 0.0624124 -4.4431 0.0654534 0.751736 
1253 433.005 319.306 -130.979 0.0100424 -4.24166 0.259227 0.524957 
1252 425.524 323.669 -125.952 0.0167448 -4.80853 0.286841 0.547348 
1151 430.079 332.388 -127.478 0.0393295 -4.6218 1.23747 0.90695 
1154 446.755 325.191 -139.422 0.0273803 -6.17145 0.153851 0.295856 
1153 436.772 324.398 -138.766 0.00435729 -5.55692 0.227146 0.319853 
1354 448.291 317.167 -124.772 0.0832291 -3.95887 0.382317 0.345657 
1353 438.565 317.939 -122.803 0.0261156 -8.55923 0.315276 0.543911 
1254 442.471 322.635 -130.753 0.0815409 -7.95327 0.55025 0.31621 
1255 452.511 323.194 -131.523 0.0613248 -7.85748 0.686676 0.267262 
1257 471.912 321.158 -135.592 0.0185537 -5.70299 0.122979 0.420248 
1355 458.046 316.418 -126.624 0.0778357 -8.14353 0.450036 0.240793 
1356 467.857 315.715 -128.281 0.0250157 -7.52879 0.133474 0.256432 
1256 462.496 322.912 -132.694 0.0848643 -6.92004 0.43027 0.35864 
1157 476.075 329.986 -137.629 0.0384984 -6.49852 0.237249 0.255635 
1357 477.669 315.071 -130.168 0.0237462 -5.93682 0.411945 0.410259 
1258 481.874 322.005 -136.006 0.0401067 -6.16343 0.107596 0.32438 
1259 490.206 322.821 -130.49 0.00624497 -7.28505 0.126687 0.212021 
1158 484.452 330.832 -132.16 0.0780111 -8.4379 0.216085 0.141548 
1159 490.059 330.3 -123.877 0.0672348 -8.05835 0.112107 0.213757 
950 413.078 342.802 -129.804 0.0184636 -5.20271 0.43191 0.46715 
949 409.078 345.264 -120.949 0.00801106 -5.26784 0.112744 0.591651 
850 410.369 352.285 -127.985 0.0617443 -0.469658 0.407517 0.383362 
851 415.579 349.958 -136.261 0.0393852 -6.42596 0.378195 0.193321 
951 418.826 340.575 -137.756 0.027234 -5.38312 0.974229 0.316243 
1052 427.847 336.568 -136.199 0.0440094 -1.40897 0.83185 0.875426 
1051 421.454 337.476 -128.636 0.00199291 2.93153 0.626128 0.722175 
1150 427.938 340.034 -121.498 0.00859024 -6.13622 0.746592 0.722092 
1050 418.99 344.449 -121.934 0.0238491 -2.26473 0.115237 0.567902 
855 446.859 349.891 -139.59 0.00037606 -7.87234 0.0582389 0.127794 
955 452.62 341.948 -137.582 0.02726 -7.79546 0.057224 0.141 
856 455.513 351.089 -134.769 0.0999843 -9.22773 0.063529 0.136776 
1057 469.38 337.438 -137.281 0.0264099 -7.53447 0.110396 0.121495 
956 461.985 343.499 -134.36 0.0424744 -8.93393 0.069377 0.0781192 
957 471.362 345.19 -131.275 0.0637932 -9.19253 0.0784193 0.159611 
857 464.514 352.428 -130.621 0.0251343 -9.17973 0.0512294 0.219012 
858 473.753 353.987 -127.115 0.0587999 -9.44194 0.0597617 0.417855 
1058 478.658 338.813 -133.773 0.0261474 -8.87207 0.158029 0.126331 
1059 485.04 338.692 -126.046 0.00841966 -8.63886 0.108665 0.223043 
958 480.896 347.276 -129.008 0.00881852 -8.74901 0.136529 0.392575 
959 487.522 347.271 -121.527 0.0359611 -9.71049 0.0351117 0.333094 
860 493.146 355.237 -123.779 0.0267682 -10.4253 0.200223 0.35464 
750 412.822 359.406 -134.554 0.0958544 -5.87878 0.0872964 0.212677 
749 413.841 361.088 -124.766 0.021777 -6.61201 0.083434 0.190736 
650 419.045 366.551 -131.335 0.0520427 -6.72406 0.0875977 0.253556 
649 420.909 367.333 -121.532 0.0224566 -6.61164 0.0959055 0.102115 
550 421.994 373.779 -137.628 0.037126 -7.21687 0.243274 0.491769 
549 423.317 374.819 -127.74 0.00538697 -6.58078 0.122862 0.242916 
754 440.058 357.207 -139.532 0.0309089 -4.47177 0.715319 0.35583 
656 454.535 366.473 -139.545 0.0233084 -8.45472 0.109945 0.556324 
755 449.287 358.83 -135.806 0.0208012 -6.38906 1.07044 0.279409 
657 464.378 364.976 -139.924 0.0032281 -8.15737 0.142188 0.483656 
756 458.877 360.326 -132.973 0.0664443 -6.59104 1.01918 0.435269 
757 468.824 361.362 -131.739 0.0109728 -8.12949 0.645796 0.421373 
659 483.847 360.542 -139.954 0.0267485 -7.18663 0.256688 0.31145 
660 493.468 357.747 -139.822 0.0297336 -6.09464 0.59179 0.423152 
859 483.189 355.814 -124.341 0.0735493 -9.09852 0.0688187 0.463681 
759 488.871 360.223 -131.3 0.0897643 -7.04999 0.848759 0.285481 
758 478.887 361.483 -131.33 0.0407542 -6.46507 0.573482 0.453809 
350 424.486 389.119 -136.519 0.00646264 -5.2982 0.252061 0.58628 
349 417.841 391.126 -129.327 0.0176586 -6.49393 0.331615 0.525238 
450 418.521 381.87 -132.952 0.0853307 -5.56459 0.499438 0.543283 
449 421.269 383.654 -123.542 0.00360386 -4.47846 0.24215 0.477387 
53 453.714 386.001 -137.558 0.0133929 -5.51637 0.161031 0.00627925 
52 447.254 391.796 -132.496 0.0469269 -5.50727 0.217408 0.00760716 
151 439.45 395.773 -137.348 0.0190342 -4.94098 0.0168776 0.149585 
47 402.934 399.523 -120.246 0.037628 -4.61681 0.0290619 0.121073 
48 409.687 405.115 -125.077 0.0467111 56.4516 60.0453 0.577127 
249 422.19 397.669 -123.163 0.0226772 -0.972387 0.0176419 0.855341 
250 423.574 398.42 -133.034 0.0354396 -5.79417 0.106599 0.535515 
149 425.789 406.123 -127.105 0.0333991 -3.14474 0.254645 1.00142 
150 433.005 401.69 -132.501 0.033842 -3.65088 0.130381 0.389675 
50 434.729 404.243 -122.988 0.00830956 -3.4441 0.148943 0.119183 
148 418.41 406.488 -120.329 0.0577154 -2.98088 0.546588 1.10775 
51 440.783 397.727 -127.631 0.0179654 -5.97698 0.139829 0.0407592 
1752 431.333 290.223 -104.466 0.0211687 109.448 113.928 0.248219 
1754 450.95 285.455 -115.358 0.0241049 -0.0584055 2.41718 0.324361 
1753 441.231 285.376 -112.566 0.0272507 61.0791 57.9436 0.456285 
1854 448.325 281.746 -106.515 0.037784 -2.09655 1.43983 0.938826 
1953 447.626 291.322 -103.438 0.121225 21.5011 2.11721 1.44588 
1853 439.738 285.141 -102.678 0.0323012 -1.40839 0.332497 0.927417 
1654 445.083 293.516 -116.801 0.0618424 -6.40782 0.806347 0.199361 
1653 435.99 293.944 -112.496 0.037843 54.7942 58.2499 0.203684 
1954 455.477 285.876 -101.006 0.0105742 8.41931 5.01802 0.962557 
1755 460.708 287.846 -116.351 0.0179597 7.1134 7.24346 0.270417 
1855 457.98 281.28 -109.432 0.0313358 57.7818 60.5309 0.466706 
1856 466.693 286.338 -108.009 0.0830144 15.2659 12.3458 0.409136 
1956 471.86 291.459 -100.782 0.00944315 8.41306 5.47013 0.631537 
1756 469.674 292.068 -115.558 0.084898 1.45251 0.850736 0.561156 
1857 476.497 288.697 -109.052 0.0157663 -3.55109 3.50268 0.591511 
1757 478.806 289.638 -118.72 0.0373859 -2.77086 0.686378 0.682595 
1759 491.992 292.299 -117.146 0.0298081 1.66417 2.12447 0.833613 
1552 431.406 302.894 -111.858 0.00499486 10.9633 10.5152 0.389325 
1551 428.831 309.252 -104.51 0.0622604 -1.63737 1.19068 0.389185 
1652 428.29 299.557 -102.532 0.135955 66.9755 66.014 0.213736 
1452 426.289 311.396 -113.88 0.00403053 -4.7466 1.72848 0.558376 
1553 438.943 301.21 -118.601 0.0177666 -3.33194 4.18436 0.106826 
1453 435.738 310.453 -116.856 0.0348612 -5.09926 0.59378 0.620004 
2152 447.258 307.645 -109.165 0.00412503 -9.28074 1.28114 0.545366 
2052 440.676 303.15 -103.191 0.0253469 71.7613 62.6819 0.895013 
2053 450.291 300.94 -102.493 0.00118158 77.5536 61.9815 1.10971 
2151 442.326 312.825 -102.067 0.0127513 -9.03989 1.96872 0.538527 
2253 454.859 313.386 -112.207 0.0109642 -10.7992 0.230602 0.350732 
2054 456.753 294.472 -106.225 0.001769 10.6309 3.66475 0.949119 
2153 456.416 303.769 -109.91 0.016004 -12.4645 0.167114 0.54515 
2254 463.14 310.731 -107.329 0.0599444 -3.52506 6.45616 0.2534 
2154 462.85 301.672 -102.587 0.0607378 5.53086 5.49519 0.497837 
1957 480.969 295.049 -102.493 0.00403148 -7.2244 2.07664 0.284528 
1858 480.741 297.14 -112.277 0.062419 5.50604 0.595839 0.718083 
1859 489.576 301.484 -113.961 0.0502531 -8.59919 0.634036 0.622637 
1958 484.234 303.913 -105.835 0.0801885 -7.72537 0.0899629 0.447915 
1959 494.117 305.41 -106.061 0.00404994 -6.7152 2.10718 0.577815 
1960 496.372 297.831 -100.013 0.0036027 -4.09349 0.74446 0.500356 
1251 425.707 330.629 -118.715 0.0286225 0.178471 0.651902 0.622767 
1351 424.614 320.952 -116.35 0.0446717 -6.41855 0.0675736 0.354526 
1451 426.05 318.531 -106.758 0.0686343 -6.64701 1.22881 0.283846 
1350 429.861 327.055 -110.409 0.0170579 -9.60082 0.52751 0.26417 
1450 432.249 324.076 -101.244 0.00671858 -6.57822 0.95201 0.286753 
1349 430.345 333.734 -102.978 0.0643905 -6.48167 0.45351 0.489231 
2452 451.098 332.557 -115.884 0.00800284 -5.58097 2.06549 0.620223 
2252 445.954 317.424 -110.112 0.0122288 -9.11336 1.30736 0.486438 
2352 453.182 323.032 -114.057 0.0293597 -3.40892 0.923474 0.400355 
2351 445.253 327.303 -109.748 0.0247831 -10.0333 1.68427 0.623493 
2350 451.047 330.432 -102.123 0.0427438 -8.75755 1.01027 0.465527 
2251 445.689 322.117 -101.263 0.046107 -7.3775 1.041 0.482648 
2453 460.617 329.666 -114.987 0.0435969 -1.85587 7.5993 0.288438 
2353 462.328 320.065 -111.576 0.0671883 -0.504264 9.05496 0.258946 
2454 465.484 328.075 -106.425 0.0184691 -8.08038 0.979479 0.148072 
2354 465.386 318.986 -102.154 0.0393085 -8.92496 0.275128 0.171315 
1160 496.374 330.154 -116.088 0.0291632 -7.2097 0.488936 0.413534 
1048 409.825 341.647 -104.521 0.0375836 -6.14884 0.2091 0.568875 
948 406.696 347.958 -111.608 0.0556659 -5.24042 0.205564 0.562288 
947 406.028 350.497 -101.903 0.00730714 -7.02891 0.461834 0.382641 
849 409.313 354.898 -118.334 0.0280803 -5.04474 0.286417 0.281212 
1049 414.667 342.137 -113.24 0.0801843 -6.96199 0.135921 0.591804 
1250 430.399 336.842 -112.417 0.012406 -7.94142 0.703796 0.515726 
1148 419.462 344.389 -104.728 0.0160554 -7.60315 0.423407 0.425432 
1149 424.291 344.753 -113.488 0.0115428 -7.3715 0.549313 0.48505 
1249 429.39 343.505 -105.058 0.0149525 -6.86619 1.08039 0.511423 
2551 448.835 342.15 -116.3 0.0736408 -5.21475 3.05131 0.654091 
2451 446.466 336.993 -108.116 0.0188387 -9.23408 1.55176 0.65338 
2651 447.318 351.615 -113.999 0.131279 -3.68602 3.88357 0.591977 
2550 451.303 345.593 -107.163 0.0980507 -1.43758 1.12412 0.534552 
2650 448.804 354.919 -104.631 0.0287045 -8.89107 0.254664 0.293682 
2652 455.498 348.999 -119.2 0.0063421 -0.447036 4.34914 0.541893 
2552 458.323 339.294 -117.61 0.00688015 -2.26717 5.46124 0.375525 
2554 467.023 336.006 -100.531 0.00551266 -11.5211 0.0903692 0.114294 
2553 464.639 337.461 -110.115 0.0524322 -8.18477 1.56475 0.15261 
2653 463.5 346.887 -113.586 0.0111195 -6.75365 1.84039 0.207784 
2654 466.723 345.294 -104.241 0.0184759 -10.6994 0.039058 0.157334 
2753 465.59 354.634 -107.613 0.0162319 -11.6 0.0549375 0.224827 
1060 491.906 338.712 -118.785 0.0433324 -9.35093 0.0880883 0.315643 
2956 490.442 351.279 -107.751 0.0484544 -7.98028 0.222519 0.427774 
2856 482.087 348.967 -102.825 0.0414325 -7.97168 0.202375 0.365802 
2857 490.079 342.943 -102.237 0.00377934 -8.09958 0.157585 0.532563 
43 398.243 365.622 -100.725 0.036372 -7.36091 0.0212493 0.140637 
848 410.196 356.778 -108.514 0.0253454 -7.9748 0.215885 0.196731 
44 401.036 374.601 -104.127 0.0274523 -7.64565 0.0340826 0.117346 
748 416.277 361.258 -115.058 0.00495713 -7.81683 0.0895828 0.106532 
747 418.073 362.008 -105.238 0.00361069 -8.1306 0.403079 0.0882979 
648 422.505 368.287 -111.705 0.0531931 -6.57434 0.16986 0.176339 
647 423.748 369.477 -101.853 0.0189032 -5.76497 0.206562 0.308848 
548 424.249 375.994 -117.84 0.0241679 -6.62782 0.0247704 0.223337 
2751 452.302 358.664 -118.992 0.00439883 -6.21471 2.67552 0.4354 
2851 449.322 368.275 -117.773 0.0291633 -3.83597 1.96808 0.52105 
2750 445.711 361.076 -111.863 0.00306946 -3.13443 3.91726 0.468267 
2850 444.744 370.485 -109.149 0.0352679 -4.02 3.28166 0.424837 
2749 451.121 364.598 -104.176 0.0395927 -8.37263 0.188921 0.326496 
2849 450.077 374.192 -101.538 0.0177968 -7.95554 0.0172124 0.207577 
2951 455.951 375.603 -119.315 0.0342351 -6.77173 1.15247 0.523932 
2852 459.034 366.027 -118.296 0.0807827 -8.08749 1.6877 0.346319 
2752 461.746 356.401 -116.65 0.00229308 -8.38461 2.15694 0.276133 
2853 465.989 363.854 -111.481 0.0225022 -8.57339 0.229149 0.389515 
2952 462.269 373.112 -112.009 0.055 -8.88685 0.244245 0.490165 
2953 470.113 371.304 -106.147 0.0224496 -6.88059 0.768454 0.459676 
2854 469.433 362.169 -102.275 0.0225499 -8.39371 0.505966 0.508339 
3054 478.423 373.794 -111.132 0.0293369 -6.23851 0.167034 0.416834 
2954 478.316 365.716 -105.246 0.00312143 -4.23674 0.200321 0.524343 
2955 482.384 357.193 -108.567 0.052089 -9.09456 0.362498 0.431005 
3056 491.519 361.19 -108.591 0.0221575 -8.01181 0.127713 0.349015 
3055 484.088 365.84 -113.41 0.0241684 -8.16147 0.298202 0.427806 
3155 492.856 370.476 -112.053 0.0284476 -6.84753 0.0522291 0.332202 
3154 485.823 374.723 -117.742 0.00506394 -6.67411 0.207505 0.343254 
144 395.375 382.509 -101.886 0.133589 -5.43999 0.269981 0.299683 
46 400.698 390.843 -115.803 0.0804791 -4.54801 0.0465778 0.186318 
145 398.044 391.185 -106.183 0.0341869 -5.09259 0.240886 0.375568 
45 400.811 382.491 -110.278 0.0243216 -6.80984 0.0155432 0.147314 
246 404.995 395.947 -100.827 0.0103575 -2.13428 0.482655 0.58714 
347 413.779 390.975 -109.827 0.0184384 2.01616 0.448676 0.820782 
346 414.513 392.785 -100.05 0.0641967 -5.67296 0.609957 0.706793 
348 415.698 390.958 -119.596 0.0373555 -7.42043 0.199143 0.5021 
547 424.129 377.418 -107.933 0.0227852 -6.98614 0.118257 0.314053 
448 418.746 383.339 -113.882 0.00313741 -7.97716 0.132327 0.310014 
447 420.572 386.114 -104.429 0.0359019 -6.94972 0.515829 0.440601 
3051 452.718 385.158 -119.192 0.0560067 -6.24596 0.843529 0.517997 
2950 447.026 377.869 -115.444 0.00626784 -4.1807 1.90138 0.424691 
2949 443.358 379.83 -106.336 0.0207339 -4.43038 2.92682 0.327254 
3050 445.824 387.421 -112.313 0.00514607 -5.49398 1.41256 0.256879 
3049 441.563 389.068 -103.409 0.0331081 -4.48843 2.24373 0.422293 
3150 452.75 394.178 -114.747 0.0651945 -5.68992 0.229342 0.279688 
3151 460.761 391.095 -119.874 0.0333935 -6.03351 0.0986044 0.499012 
3152 469.155 385.634 -119.708 0.0096315 -6.17734 0.0364389 0.427832 
3053 470.149 379.286 -112.064 0.0252591 -6.29032 0.544391 0.442856 
3052 461.131 382.695 -114.495 0.157393 -5.37598 0.516375 0.67989 
3252 469.581 395.528 -118.327 0.0809756 -5.43683 0.123662 0.248556 
3253 477.998 390.182 -118.715 0.0387029 -5.41315 0.0617778 0.231005 
3153 477.488 380.192 -118.772 0.0664489 -6.40516 0.0683222 0.303039 
3254 486.378 384.712 -118.332 0.0248878 -5.77612 0.0637501 0.199629 
3353 486.81 394.656 -117.275 0.0702437 -5.37857 0.0751135 0.243321 
3255 494.58 379.357 -116.315 0.0123087 -5.03329 0.195964 0.376948 
3354 494.094 388.916 -113.562 0.0203633 -5.54586 0.340495 0.372031 
146 403.106 398.837 -110.266 0.0149461 -0.0547627 0.672997 0.386249 
147 410.079 404.26 -115.131 0.0358607 -2.57963 0.780295 0.574697 
247 412.189 400.197 -106.276 0.050816 -5.09784 0.244219 0.75528 
49 427.743 409.289 -117.851 0.04198 59.3795 60.264 0.671875 
248 418.393 398.787 -113.983 0.0161643 -5.44416 0.0791938 0.810367 
3149 445.354 396.767 -108.521 0.0125163 -5.33504 0.865401 0.262204 
3148 439.565 398.303 -100.475 0.027529 -4.64171 1.36647 0.423319 
3250 453.624 402.355 -109.046 0.0773678 -6.4442 0.0251358 0.0987226 
3249 446.009 405.352 -103.296 0.00324615 -5.61649 0.637118 0.143008 
3349 454.564 410.515 -103.369 0.00263592 -5.46392 0.0740173 0.189705 
3251 461.82 397.752 -112.454 0.0570744 -6.17654 0.0704456 0.152575 
3351 470.752 401.858 -110.647 0.0135465 -5.81265 0.0432131 0.0988036 
3350 462.666 405.213 -105.839 0.0156986 -5.9137 0.0333441 0.056139 
3451 471.697 408.861 -103.569 0.0369505 -5.42552 0.0381156 0.0450539 
3352 478.377 399.988 -116.855 0.0188151 -5.2256 0.129102 0.166449 
3453 487.159 404.515 -115.511 0.0251992 -5.01633 0.169466 0.237137 
3452 479.509 406.513 -109.365 0.00284822 -5.63248 0.0225409 0.0986188 
3552 488.052 411.671 -108.564 0.0367499 -5.26365 0.0299437 0.127802 
3454 495.079 398.819 -113.456 0.0181417 -5.38564 0.250467 0.412015 
3551 480.078 414.315 -103.134 0.00722987 -5.47347 0.030018 0.0532355 
3553 496.067 408.75 -113.791 0.0496206 -5.03464 0.0728314 0.234124 
3652 489.165 417.694 -100.648 0.0142892 -5.68365 0.0152974 0.116746 
1852 434.538 289.063 -95.0587 0.0191859 -3.44396 0.460198 1.01568 
1952 444.493 288.136 -94.4635 0.0303125 126.915 119.906 1.42352 
1955 464.872 284.977 -98.1629 0.0173171 56.1605 61.0747 0.690254 
2056 468.016 291.781 -91.5541 0.0167304 -4.0489 1.86607 0.645565 
2055 459.909 293.727 -96.8818 0.00711371 10.308 6.41484 0.778882 
1651 428.542 306.301 -94.9929 0.0583823 -5.09178 1.30611 0.157058 
1751 428.256 296.61 -92.8082 0.0984088 67.4316 60.7935 0.438204 
1750 431.514 303.329 -85.8584 0.0717092 3.52026 4.74312 0.351993 
1650 431.687 313.076 -88.2917 0.074258 -7.49943 0.773429 0.081087 
1851 435.99 294.488 -86.7878 0.0197089 0.60859 1.05496 0.957934 
1749 436.988 309.812 -80.458 0.0301406 -5.07948 2.46204 0.237663 
1951 440.319 297.168 -95.3234 0.0566348 27.7703 2.36817 1.16078 
2051 442.631 306.823 -94.072 0.00458182 -1.61352 0.0398266 0.370444 
2050 450.605 307.947 -88.1372 0.0264207 -10.8218 0.554006 0.272305 
1950 444.353 300.157 -86.8286 0.0888097 4.25302 2.63279 0.621783 
1949 451.892 301.585 -80.5552 0.00325448 51.4053 59.6977 0.596087 
2255 464.987 310.074 -97.5686 0.0178606 -10.8348 0.294028 0.185559 
2049 457.684 309.769 -81.2399 0.012868 -9.93611 0.655062 0.38664 
2155 464.738 301.282 -92.751 0.00339359 -6.00441 2.46052 0.415569 
2256 471.234 308.26 -90.0036 0.0165819 -2.10164 0.634638 0.398926 
2156 471.681 299.109 -85.9408 0.0341045 -6.18745 0.812223 0.605708 
2257 475.028 306.963 -80.8411 0.00871682 -5.34689 1.69741 0.590875 
2059 488.4 310.266 -99.3174 0.0158127 -6.08183 1.08859 0.605251 
2057 477.344 294.965 -93.1022 0.0409833 -3.80302 1.79423 0.420782 
2058 483.359 302.342 -96.0019 0.0195179 -7.30892 0.416643 0.315074 
2158 485.783 309.637 -89.5905 0.00490671 -3.44472 1.13483 0.418312 
2157 481.385 301.273 -86.2644 0.00545616 0.797959 1.90714 0.520476 
39 389.523 331.566 -83.1778 0.0270227 -4.0263 0.0396395 0.138373 
38 397.433 326.115 -80.4393 0.0222821 -4.9317 0.0121627 0.127815 
1550 428.047 316.035 -97.1745 0.0402895 -7.58128 1.03522 0.160081 
1549 433.271 322.439 -91.4664 0.00615325 -10.7975 0.276656 0.153437 
1246 416.766 334.199 -80.9129 0.0178215 -3.28805 5.94387 0.579825 
1449 436.405 331.058 -95.538 0.0320516 -9.52207 0.881411 0.275307 
1649 437.079 319.501 -82.6834 0.0341889 -11.2012 0.997826 0.0876803 
2250 453.523 323.478 -95.2571 0.0391941 -12.6962 0.614691 0.190724 
2150 447.655 315.475 -94.0502 0.0183584 -14.1199 0.0950501 0.226021 
1548 440.177 328.037 -86.8659 0.052025 -11.7726 0.533428 0.235331 
2349 453.777 333.19 -92.916 0.0203485 -13.0688 0.0682801 0.131327 
1547 443.897 334.848 -80.5712 0.013352 -5.10749 0.970267 0.503697 
2149 455.713 316.582 -88.2876 0.0387989 -12.9529 0.250242 0.139349 
2249 455.977 326.316 -86.0165 0.023876 -11.8784 0.197603 0.105463 
2455 469.188 326.796 -97.2245 0.010029 -10.8424 0.0620961 0.115445 
2356 472.531 316.092 -84.0066 0.0033846 -11.1162 0.418608 0.222055 
2355 470.472 317.506 -93.6974 0.0178445 -11.0691 0.151162 0.128614 
2456 470.453 325.255 -87.4307 0.0656787 -9.028 0.13446 0.278218 
2556 475.447 332.842 -83.3105 0.0214482 -7.82698 1.67579 0.663029 
2555 469.132 334.534 -90.893 0.00398622 -7.97025 0.0489015 0.366194 
2159 493.503 315.308 -92.3395 0.0402779 -6.14023 1.07687 0.808423 
2259 490.07 315.813 -82.873 0.0441188 15.4613 2.8763 0.85282 
2557 483.891 327.659 -82.1614 0.00610876 -5.13897 0.196353 0.729847 
2657 482.838 333.727 -90.0131 0.0265817 -6.30271 0.117977 0.611761 
2658 490.836 334.582 -84.0816 0.117134 -8.2459 0.0737413 0.389346 
40 390.358 340.303 -87.9332 0.0447524 -5.64952 0.0203323 0.0383064 
41 390.891 349.19 -92.4774 0.0252516 -6.17922 0.0228576 0.0292123 
140 390.071 348.712 -82.525 0.0201206 -6.77664 0.0492251 0.112056 
1047 406.361 343.005 -95.2642 0.044093 -7.56311 0.245633 0.508442 
1146 410.931 337.527 -88.3035 0.0282054 -7.36286 0.457003 0.495073 
1046 404.882 345.037 -85.5466 0.013369 -8.91526 1.41511 0.317273 
946 406.639 352.447 -92.0604 0.0791537 -8.79717 0.647731 0.220953 
945 407.903 353.917 -82.1659 0.0177359 -10.0238 0.829848 0.131727 
1346 426.914 335.351 -81.7289 0.0704337 -2.34371 6.1987 0.52172 
1348 434.199 340.69 -96.8696 0.00493502 -7.93915 1.13186 0.448981 
1147 415.728 339.781 -96.72 0.0250788 -7.73848 0.425427 0.428278 
1248 424.772 344.055 -96.1857 0.0196143 -5.18491 0.556691 0.364771 
1247 420.621 340.003 -88.0301 0.0397629 -8.44442 0.35943 0.331568 
1347 430.266 342.496 -87.8991 0.00344284 -7.35766 0.435887 0.402957 
2450 449.777 339.897 -99.1322 0.00420457 -11.653 0.140553 0.210669 
2549 453.651 349.061 -98.1078 0.0408537 -10.438 0.145861 0.271003 
1448 439.075 337.833 -88.6997 0.0185932 -7.54823 0.866837 0.476195 
2449 453.483 342.833 -90.2953 0.00954203 -10.8899 0.0938427 0.136639 
2548 455.503 352.527 -88.931 0.0393978 -9.19846 0.0912742 0.235556 
2754 468.92 353.05 -98.3379 0.0104442 -8.71239 0.452841 0.444111 
2348 457.165 336.049 -83.9753 0.0151076 -7.99985 0.281242 0.0531763 
2448 459.412 345.692 -82.7397 0.014337 -10.3732 0.0740531 0.183956 
2655 468.719 343.836 -94.5345 0.196473 -9.1003 0.132902 0.431272 
2547 463.955 354.52 -83.9676 0.0241264 -8.62874 0.0937982 0.295161 
2656 476.291 341.132 -88.6037 0.0113045 -7.77757 1.95134 0.632115 
2756 481.938 340.942 -96.8417 0.000523137 -5.52726 0.136934 0.563341 
2755 477.133 349.281 -94.1455 0.091043 -7.13125 1.46349 0.551342 
2757 490.982 338.463 -93.3142 0.0204811 -7.34318 0.117866 0.470007 
2858 495.204 347.376 -94.8821 0.00529796 -5.39978 0.29467 0.688385 
2758 495.022 343.498 -85.6567 0.0431881 -7.35857 0.0677624 0.275935 
242 391.028 365.3 -82.1558 0.027143 -6.90622 0.406484 0.183015 
243 391.009 373.935 -87.3074 0.00375072 -0.439602 1.86549 0.221528 
42 393.214 357.916 -96.8114 0.0561474 -5.9615 0.0369449 0.141231 
141 393.774 356.939 -86.87 0.0391433 -7.04061 0.0534424 0.155537 
143 394.203 373.903 -96.8435 0.0730554 -5.6875 0.38182 0.243411 
142 395.482 365.826 -91.0957 0.017004 -8.04311 0.0545316 0.252394 
847 411.622 358.089 -98.6691 0.00335814 -9.66731 0.188911 0.118959 
846 412.934 359.48 -88.8253 0.138925 -9.82093 0.22635 0.087568 
746 419.684 362.99 -95.3527 0.00218345 -4.99231 0.737046 0.171084 
745 420.802 364.6 -85.4637 0.00935729 -3.54141 0.660837 0.444475 
646 424.604 371.044 -92.0431 0.00524379 -5.53909 0.268937 0.612109 
645 421.115 374.416 -83.3365 0.00455534 -5.8625 0.496432 0.566941 
545 415.696 375.632 -91.616 0.0372413 -2.7261 0.225026 0.650566 
2649 452.554 358.779 -96.19 0.00540257 -8.78474 0.148636 0.253208 
2748 456.001 368.172 -96.2102 0.0744839 -8.80624 0.0258333 0.140517 
2747 458.715 370.793 -86.9442 0.0299563 -6.2138 0.399233 0.154615 
2648 459.968 361.385 -90.0347 0.0376135 -7.96766 0.0758912 0.255003 
2647 463.297 364.074 -81.0096 0.0289292 -5.2449 0.958915 0.343628 
2855 477.832 357.476 -99.6749 0.0655066 -6.57277 0.821208 0.490507 
244 392.942 382.615 -92.1753 0.0304429 -1.66103 1.55436 0.496273 
343 393.212 382.246 -82.2124 0.0763826 -4.53931 0.484362 0.736101 
446 413.61 383.069 -97.9166 0.0207229 -7.55185 0.127377 0.547632 
245 398.116 390.264 -96.2348 0.00747031 -4.03095 0.597684 0.555863 
444 402.472 378.343 -82.3293 0.0105848 -0.0681732 0.355465 0.885048 
544 412.395 379.345 -82.9415 0.022739 -7.10817 0.0950381 0.424442 
445 406.801 380.124 -91.1719 0.00602642 -6.49586 0.122987 0.598864 
345 407.711 389.805 -93.4369 0.0437547 -6.63977 0.287856 0.487721 
344 400.526 386.833 -87.193 0.0143164 -4.82397 0.226967 0.870139 
546 422.606 378.69 -98.1405 0.0285126 -6.48416 0.275476 0.520309 
2948 448.127 383.465 -98.3274 0.0717179 -6.71211 0.139991 0.202348 
2848 453.598 377.23 -92.6826 0.0303947 -6.6728 0.170804 0.0452559 
3047 443.402 392.057 -84.7839 0.0274626 -6.66029 0.0631368 0.147152 
2947 450.016 385.744 -88.7986 0.0960927 -5.87543 0.282546 0.0773799 