11600
Atoms. Timestep: 2100071
C1 -1.26081 456.824 44.0717
C1 8.71632 456.204 44.349
C1 18.7141 456.197 44.3252
C1 28.7062 456.331 44.2318
C1 38.6959 456.317 44.2179
C1 48.6796 456.132 44.2895
C1 58.6594 456.299 44.1428
C1 68.6309 455.889 44.3033
C1 78.5989 456.277 43.9515
C1 88.565 455.721 44.1522
C1 98.5429 455.937 43.8199
C1 108.53 455.842 43.6928
C1 118.521 455.807 43.5152
C1 128.518 455.733 43.3653
C1 138.52 455.56 43.3033
C1 148.527 455.276 43.3651
C1 158.541 454.963 43.5221
C1 168.567 454.735 43.7103
C1 178.603 454.665 43.8602
C1 188.646 454.783 43.9342
C1 198.68 454.958 44.2305
C1 208.681 455.096 44.9421
C1 218.661 455.274 45.7918
C1 228.62 455.508 46.7628
C1 238.56 455.811 47.8334
C1 248.5 456.185 48.8334
C1 258.453 456.602 49.6533
C1 268.444 456.846 49.6664
C1 277.806 458.493 52.7418
C1 287.341 456.507 50.5124
C1 297.291 455.919 51.3014
C1 307.268 455.237 51.4309
C1 317.227 454.521 50.9737
C1 327.181 453.87 50.4426
C1 337.135 453.273 49.9317
C1 347.087 452.714 49.441
C1 357.034 452.179 48.9627
C1 366.971 451.634 48.4474
C1 376.907 451.093 47.8656
C1 386.861 450.691 47.6425
C1 396.816 450.335 47.3346
C1 406.776 450.021 46.9277
C1 416.744 449.663 46.5618
C1 426.717 449.281 46.2104
C1 436.693 448.841 45.9272
C1 446.666 448.336 45.6938
C1 456.639 447.9 45.2661
C1 466.616 447.787 44.3774
C1 476.632 447.41 43.9325
C1 486.666 447.04 43.5178
C1 496.72 446.73 43.0878
C1 506.788 446.51 42.6424
C1 516.865 446.232 42.3705
C1 526.94 445.875 42.2638
C1 537.018 445.425 42.2789
C1 547.123 445.23 41.9247
C1 557.229 445.236 41.3676
C1 567.325 445.437 40.5919
C1 577.455 445.477 40.0853
C1 587.603 445.394 39.7903
C1 597.76 445.255 39.6243
C1 607.919 445.053 39.5945
C1 618.079 444.868 39.626
C1 628.23 444.578 39.8474
C1 638.376 444.487 39.9304
C1 648.503 444.216 40.2701
C1 658.625 444.359 40.1618
C1 668.748 444.426 40.156
C1 678.868 444.441 40.3388
C1 688.977 444.585 40.3835
C1 699.083 444.761 40.4075
C1 709.175 444.794 40.7861
C1 719.266 444.962 40.9141
C1 729.354 445.111 41.1125
C1 739.44 445.28 41.318
C1 749.525 445.457 41.559
C1 759.61 445.658 41.8265
C1 769.691 445.887 42.1291
C1 779.766 446.145 42.4668
C1 789.839 446.44 42.8352
C1 799.912 446.8 43.2394
C1 809.982 447.28 43.6985
C1 820.034 447.948 44.2373
C1 829.986 448.914 45.4455
C1 839.298 450.949 48.6055
C1 846.125 456.475 53.4654
C1 854.078 461.552 56.8886
C1 862.279 466.649 59.6354
C1 870.548 471.89 61.8273
C1 878.839 477.245 63.6166
C1 887.11 482.895 64.3663
C1 895.419 488.569 64.0952
C1 903.81 494.174 63.9975
C1 912.317 499.654 64.2692
C1 920.95 505.009 64.4313
C1 929.979 509.716 63.8743
C1 939.26 513.73 62.6743
C1 948.773 517.101 62.6557
C1 957.992 519.993 59.996
C1 967.37 523.485 59.9317
C1 3.74514 460.292 51.9982
C1 13.7391 460.392 51.9116
C1 23.732 460.416 51.8787
C1 33.7255 460.43 51.8516
C1 43.7197 460.445 51.8193
C1 53.7139 460.47 51.7649
C1 63.7074 460.505 51.6807
C1 73.6988 460.588 51.5274
C1 83.6897 460.643 51.3632
C1 93.6758 460.831 51.0579
C1 103.667 460.909 50.8149
C1 113.658 460.974 50.5662
C1 123.65 461.023 50.3233
C1 133.642 461.089 50.0658
C1 143.632 461.175 49.7961
C1 153.617 461.329 49.4679
C1 163.592 461.607 49.0108
C1 173.554 461.98 48.448
C1 183.503 462.442 47.7793
C1 193.448 462.984 47.0453
C1 203.427 463.377 46.837
C1 213.405 463.69 46.9392
C1 223.382 464.012 47.0206
C1 233.358 464.314 47.1008
C1 243.329 464.578 47.1787
C1 253.295 464.81 47.2144
C1 263.252 465.015 47.1696
C1 273.198 465.211 46.9424
C1 283.129 465.008 47.3334
C1 292.993 464.477 48.4275
C1 302.884 463.946 49.2507
C1 312.804 463.39 49.7165
C1 322.742 462.81 49.9967
C1 332.689 462.215 50.1994
C1 342.64 461.612 50.3541
C1 352.597 461.001 50.4568
C1 362.562 460.393 50.3976
C1 372.473 459.936 49.2714
C1 382.288 458.974 50.8628
C1 392.23 458.135 51.5938
C1 402.203 457.334 51.9994
C1 412.185 456.582 52.1699
C1 422.172 455.926 52.1413
C1 432.158 455.505 51.8282
C1 442.151 455.095 51.4982
C1 452.157 454.759 51.0155
C1 462.088 454.994 49.6561
C1 472.085 454.398 49.4788
C1 482.093 453.881 49.2215
C1 492.108 453.582 48.7392
C1 502.124 453.471 48.1023
C1 512.155 453.381 47.5301
C1 522.21 453.245 47.089
C1 532.284 452.932 46.8966
C1 542.353 452.504 46.8496
C1 552.425 452.322 46.5341
C1 562.518 452.247 46.1323
C1 572.628 451.992 45.946
C1 582.742 451.729 45.8135
C1 592.859 451.466 45.7391
C1 602.977 451.234 45.704
C1 613.094 451.014 45.732
C1 623.21 450.912 45.7226
C1 633.322 450.772 45.825
C1 643.43 450.642 45.9896
C1 653.544 450.646 46.0465
C1 663.646 450.941 45.767
C1 673.719 451.464 45.2259
C1 683.809 451.786 45.0078
C1 693.897 451.867 45.1497
C1 703.963 452.354 44.7216
C1 714.048 452.593 44.7187
C1 724.119 452.56 45.239
C1 734.188 452.855 45.1946
C1 744.256 453.137 45.193
C1 754.32 453.438 45.2008
C1 764.377 453.782 45.1831
C1 774.427 454.141 45.1994
C1 784.466 454.525 45.2263
C1 794.485 454.973 45.1725
C1 804.474 455.532 44.9102
C1 814.429 456.209 44.3886
C1 824.367 456.954 43.6602
C1 834.349 457.643 43.1502
C1 844.374 458.046 43.7668
C1 853.761 458.52 47.3671
C1 862.614 460.447 51.8005
C1 871.153 463.767 56.0235
C1 879.531 468.12 59.5591
C1 887.836 473.138 62.2221
C1 896.098 478.572 63.9305
C1 904.371 484.183 64.5513
C1 912.701 489.662 63.6613
C1 921.136 495.001 64.5272
C1 929.327 500.247 66.9826
C1 938.125 503.921 63.8291
C1 946.946 507.491 60.8871
C1 956.344 510.47 62.5137
C1 965.706 513.723 61.2061
C1 974.948 516.983 59.2648
C1 -1.24929 465.72 58.7435
C1 8.75143 465.715 58.7433
C1 18.748 465.721 58.7296
C1 28.7445 465.72 58.7159
C1 38.7433 465.715 58.7022
C1 48.7471 465.713 58.6772
C1 58.7553 465.74 58.6108
C1 68.766 465.808 58.484
C1 78.776 465.918 58.2928
C1 88.7833 466.071 58.0336
C1 98.7853 466.262 57.7129
C1 108.782 466.488 57.3406
C1 118.773 466.748 56.9193
C1 128.757 467.041 56.4517
C1 138.734 467.36 55.9466
C1 148.705 467.693 55.4199
C1 158.673 468.028 54.8918
C1 168.639 468.36 54.3726
C1 178.605 468.721 53.8271
C1 188.49 469.574 52.6812
C1 198.379 468.634 53.6591
C1 208.178 470.181 52.4461
C1 218.142 470.973 51.9071
C1 228.131 471.577 51.5387
C1 238.132 472.068 51.2592
C1 248.14 472.469 51.0235
C1 258.153 472.791 50.8045
C1 268.174 473.032 50.5914
C1 278.208 473.154 50.403
C1 288.244 473.077 50.2863
C1 298.268 472.766 50.2545
C1 308.272 472.294 50.307
C1 318.254 471.74 50.4247
C1 328.224 471.153 50.5773
C1 338.186 470.553 50.7369
C1 348.147 469.943 50.8837
C1 358.105 469.326 51.0037
C1 368.063 468.721 51.0816
C1 378.02 468.023 51.1685
C1 387.961 467.182 51.3279
C1 397.902 466.353 51.5168
C1 407.832 465.583 52.1189
C1 417.747 464.847 52.9415
C1 427.594 464.022 54.3837
C1 437.571 463.412 54.6443
C1 447.559 462.811 54.7894
C1 457.549 462.226 54.8691
C1 467.546 461.67 54.6654
C1 477.536 461.147 54.3983
C1 487.522 460.637 54.1646
C1 497.512 460.125 53.9891
C1 507.507 459.608 53.8412
C1 517.512 459.09 53.7199
C1 527.532 458.584 53.6425
C1 537.577 458.112 53.6072
C1 547.654 457.705 53.5045
C1 557.733 457.376 53.2885
C1 567.807 457.118 53.0587
C1 577.891 456.944 52.8387
C1 587.979 456.861 52.5995
C1 598.066 456.862 52.3466
C1 608.15 456.932 52.087
C1 618.232 457.058 51.8245
C1 628.312 457.237 51.5558
C1 638.392 457.465 51.2631
C1 648.466 457.735 50.9311
C1 658.531 458.038 50.5933
C1 668.596 458.296 50.4024
C1 678.667 458.465 50.3695
C1 688.747 458.619 50.4096
C1 698.817 459.083 50.0225
C1 708.843 459.762 49.3377
C1 718.902 460.024 49.3379
C1 728.953 460.461 49.021
C1 739.012 460.741 49.0074
C1 749.064 460.966 49.139
C1 759.107 461.206 49.2919
C1 769.143 461.484 49.4287
C1 779.173 461.796 49.5587
C1 789.2 462.147 49.6659
C1 799.225 462.544 49.694
C1 809.247 463.001 49.5543
C1 819.254 463.567 49.1398
C1 829.043 464.882 47.528
C1 838.864 466.06 46.1076
C1 848.773 466.899 45.0877
C1 858.772 466.847 45.1565
C1 868.677 466.597 46.7645
C1 878.291 466.865 49.7198
C1 887.499 468.303 53.4813
C1 896.331 471.034 57.3558
C1 904.866 474.899 60.8203
C1 913.203 479.639 63.494
C1 921.381 484.997 65.1515
C1 929.539 490.246 67.0142
C1 937.834 495.339 68.7646
C1 946.547 498.554 65.2688
C1 954.525 501.017 59.8352
C1 963.915 503.915 61.5802
C1 973.342 507.243 60.9226
C1 3.75858 473.576 62.3653
C1 13.7542 473.573 62.3806
C1 23.7515 473.578 62.3625
C1 33.7511 473.577 62.3446
C1 43.7513 473.619 62.22
C1 53.7499 473.691 62.0364
C1 63.7478 473.779 61.8413
C1 73.7447 473.894 61.6174
C1 83.7394 474.039 61.3579
C1 93.7305 474.216 61.0552
C1 103.717 474.425 60.7102
C1 113.7 474.663 60.3255
C1 123.678 474.929 59.9118
C1 133.656 475.205 59.5008
C1 143.634 475.474 59.121
C1 153.616 475.714 58.8048
C1 163.599 475.901 58.5811
C1 173.58 476.019 58.4629
C1 183.554 476.101 58.3986
C1 193.526 475.797 58.6653
C1 203.324 474.486 60.0624
C1 213.299 474.252 60.0088
C1 223.285 474.039 59.9214
C1 233.284 473.868 59.8053
C1 243.296 473.761 59.6642
C1 253.315 473.729 59.4977
C1 263.335 473.774 59.3076
C1 273.347 473.872 59.1116
C1 283.346 473.979 58.9517
C1 293.334 474.053 58.8495
C1 303.312 474.043 58.8046
C1 313.284 473.915 58.8166
C1 323.257 473.675 58.874
C1 333.236 473.366 58.9509
C1 343.225 473.035 59.0164
C1 353.224 472.728 59.0388
C1 363.232 472.476 58.9905
C1 373.244 472.297 58.8468
C1 383.25 472.209 58.5813
C1 393.242 472.204 58.1584
C1 403.103 473.065 56.7655
C1 413.076 473.133 56.027
C1 423.072 472.874 55.5558
C1 433.062 472.321 55.3473
C1 443.047 471.739 55.2087
C1 453.024 471.155 55.0936
C1 462.996 470.586 54.9545
C1 472.967 470.049 54.7592
C1 482.941 469.535 54.525
C1 492.923 469.025 54.2876
C1 502.912 468.51 54.0732
C1 512.906 467.991 53.8988
C1 522.906 467.476 53.7683
C1 532.909 466.98 53.673
C1 542.917 466.533 53.5907
C1 552.933 466.164 53.4993
C1 562.954 465.871 53.4042
C1 572.977 465.649 53.3104
C1 583.003 465.514 53.2097
C1 593.035 465.465 53.1101
C1 603.074 465.486 53.0369
C1 613.12 465.559 53.0098
C1 623.171 465.672 53.0308
C1 633.227 465.815 53.0862
C1 643.288 465.98 53.1614
C1 653.358 466.152 53.266
C1 663.437 466.283 53.452
C1 673.514 466.345 53.7296
C1 683.572 466.347 54.0584
C1 693.61 466.513 54.1823
C1 703.653 466.865 54.0583
C1 713.701 467.27 53.8317
C1 723.754 467.666 53.5954
C1 733.8 468.038 53.4044
C1 743.837 468.424 53.2286
C1 753.864 468.825 53.0501
C1 763.882 469.247 52.8489
C1 773.893 469.697 52.6086
C1 783.9 470.171 52.3352
C1 793.907 470.647 52.0746
C1 803.916 471.109 51.8932
C1 813.924 471.531 51.9007
C1 823.908 471.707 52.6737
C1 833.891 472.349 52.076
C1 843.823 473.104 51.1786
C1 853.696 473.952 50.1185
C1 863.424 474.941 48.5474
C1 873.263 475.344 48.1669
C1 883.124 475.5 48.1608
C1 892.98 475.49 49.0986
C1 902.709 475.649 51.1085
C1 912.176 476.417 54.1029
C1 921.278 478.414 57.6558
C1 929.185 484.408 58.9018
C1 936.176 491.506 59.7011
C1 944.226 488.81 64.8747
C1 953.646 491.725 63.4433
C1 962.029 494.484 58.7889
C1 971.444 497.471 60.1259
C1 980.783 500.753 59.072
C1 -1.24912 481.779 65.0994
C1 8.7521 481.794 65.0991
C1 18.7511 481.798 65.0891
C1 28.7503 481.799 65.0723
C1 38.7475 481.801 65.055
C1 48.7431 481.81 65.0389
C1 58.7367 481.825 65.0239
C1 68.729 481.848 65.0135
C1 78.7213 481.879 65.0056
C1 88.7143 481.915 64.9952
C1 98.7079 481.955 64.9712
C1 108.701 481.997 64.93
C1 118.693 482.036 64.8744
C1 128.682 482.068 64.8074
C1 138.667 482.091 64.7383
C1 148.648 482.102 64.6812
C1 158.625 482.097 64.652
C1 168.597 482.07 64.6669
C1 178.569 482.013 64.7304
C1 188.542 481.912 64.8196
C1 198.514 481.77 64.9443
C1 208.493 481.531 64.9109
C1 218.474 481.287 64.8645
C1 228.454 481.052 64.8179
C1 238.435 480.84 64.7854
C1 248.422 480.666 64.7755
C1 258.414 480.553 64.7538
C1 268.409 480.504 64.7134
C1 278.402 480.492 64.6763
C1 288.394 480.481 64.6672
C1 298.39 480.443 64.6746
C1 308.391 480.356 64.6777
C1 318.394 480.212 64.6656
C1 328.397 480.018 64.6386
C1 338.4 479.79 64.6
C1 348.405 479.547 64.5479
C1 358.415 479.31 64.4814
C1 368.432 479.094 64.3871
C1 378.457 478.907 64.2494
C1 388.489 478.753 64.0371
C1 398.518 478.623 63.7119
C1 408.525 478.448 63.1956
C1 418.508 478.198 62.7035
C1 428.481 477.878 62.3016
C1 438.452 477.496 61.9846
C1 448.426 477.075 61.7257
C1 458.404 476.625 61.4895
C1 468.383 476.145 61.2566
C1 478.358 475.634 61.0269
C1 488.329 475.093 60.8148
C1 498.295 474.528 60.6361
C1 508.258 473.944 60.5006
C1 518.22 473.352 60.4134
C1 528.184 472.764 60.3711
C1 538.154 472.197 60.3616
C1 548.131 471.672 60.367
C1 558.116 471.211 60.3729
C1 568.105 470.823 60.3745
C1 578.098 470.51 60.3718
C1 588.093 470.284 60.3615
C1 598.086 470.132 60.363
C1 608.081 470.03 60.404
C1 618.085 469.971 60.4902
C1 628.104 469.962 60.6045
C1 638.137 470.022 60.7203
C1 648.179 470.167 60.8171
C1 658.221 470.366 60.9315
C1 668.272 470.601 61.0867
C1 678.345 470.87 61.2549
C1 688.448 471.165 61.3568
C1 698.561 471.508 61.3007
C1 708.652 471.958 61.0727
C1 718.711 472.498 60.7407
C1 728.744 473.101 60.368
C1 738.761 473.75 59.9732
C1 748.771 474.432 59.5487
C1 758.775 475.144 59.0777
C1 768.772 475.88 58.544
C1 778.758 476.639 57.9431
C1 788.732 477.413 57.2849
C1 798.691 478.198 56.5934
C1 808.639 478.99 55.895
C1 818.582 479.768 55.1765
C1 828.515 480.445 54.3408
C1 838.433 481.165 53.5174
C1 848.334 481.937 52.7167
C1 858.226 482.727 51.9485
C1 868.116 483.369 51.1863
C1 877.997 483.796 50.5299
C1 887.863 484.061 50.0946
C1 897.727 484.252 49.952
C1 907.609 484.329 50.0463
C1 917.521 483.961 50.2256
C1 926.987 480.878 49.8152
C1 934.379 487.431 50.8843
C1 943.201 485.925 55.298
C1 950.717 482.472 60.9004
C1 960.398 484.831 60.8317
C1 969.528 487.855 58.3133
C1 978.196 491.781 55.3549
C1 3.73569 490.068 62.5603
C1 13.7402 490.089 62.5839
C1 23.7428 490.088 62.5622
C1 33.7411 490.079 62.5099
C1 43.7345 490.068 62.4394
C1 53.7245 490.061 62.3617
C1 63.7124 490.059 62.2831
C1 73.6994 490.063 62.2072
C1 83.6862 490.075 62.1366
C1 93.6734 490.097 62.0734
C1 103.662 490.129 62.0178
C1 113.653 490.169 61.9687
C1 123.647 490.212 61.924
C1 133.643 490.25 61.8813
C1 143.641 490.276 61.8377
C1 153.642 490.28 61.7921
C1 163.647 490.251 61.7428
C1 173.654 490.176 61.6876
C1 183.663 490.044 61.6239
C1 193.668 489.848 61.5475
C1 203.663 489.591 61.4583
C1 213.648 489.327 61.3716
C1 223.623 489.073 61.2927
C1 233.592 488.837 61.2269
C1 243.553 488.631 61.1822
C1 253.503 488.472 61.1346
C1 263.458 488.426 61.1809
C1 273.438 488.455 61.2675
C1 283.438 488.474 61.3103
C1 293.455 488.464 61.3449
C1 303.481 488.404 61.36
C1 313.51 488.287 61.3551
C1 323.536 488.114 61.3287
C1 333.554 487.897 61.2836
C1 343.561 487.656 61.2266
C1 353.555 487.419 61.1782
C1 363.545 487.211 61.149
C1 373.537 487.041 61.116
C1 383.526 486.921 61.0748
C1 393.527 486.869 61.0573
C1 403.556 486.854 61.05
C1 413.634 486.74 60.8766
C1 423.678 486.479 60.5269
C1 433.708 486.122 60.1475
C1 443.716 485.692 59.7553
C1 453.715 485.229 59.4111
C1 463.712 484.747 59.1191
C1 473.709 484.243 58.8585
C1 483.704 483.712 58.6175
C1 493.694 483.15 58.3899
C1 503.675 482.56 58.1755
C1 513.648 481.947 57.9782
C1 523.611 481.322 57.802
C1 533.564 480.704 57.6545
C1 543.508 480.121 57.5529
C1 553.447 479.611 57.5171
C1 563.385 479.207 57.5693
C1 573.323 478.902 57.7064
C1 583.26 478.702 57.931
C1 593.204 478.609 58.2467
C1 603.158 478.565 58.6185
C1 613.122 478.545 59.0188
C1 623.09 478.553 59.4421
C1 633.061 478.61 59.8892
C1 643.036 478.733 60.3567
C1 653.032 478.915 60.7363
C1 663.039 479.13 61.0495
C1 673.071 479.372 61.3014
C1 683.144 479.645 61.3675
C1 693.231 479.954 61.081
C1 703.248 480.332 60.5025
C1 713.238 480.792 59.8254
C1 723.213 481.308 59.0832
C1 733.182 481.853 58.2947
C1 743.146 482.41 57.4578
C1 753.104 482.967 56.5653
C1 763.054 483.521 55.6131
C1 772.996 484.074 54.6026
C1 782.934 484.619 53.5371
C1 792.872 485.142 52.4176
C1 802.811 485.614 51.2439
C1 812.749 486.004 50.0245
C1 822.679 486.312 48.7822
C1 832.594 486.6 47.551
C1 842.506 486.918 46.3663
C1 852.435 487.278 45.2538
C1 862.403 487.637 44.2232
C1 872.422 487.846 43.3015
C1 882.484 487.841 42.548
C1 892.573 487.564 42.016
C1 902.662 486.977 41.7268
C1 912.705 486.025 41.6591
C1 922.626 484.807 41.7053
C1 932.497 483.759 41.8718
C1 941.098 481.492 46.5178
C1 949.289 478.892 51.6774
C1 957.318 476.115 57.0718
C1 964.897 480.965 52.7492
C1 973.89 484.408 50.016
C1 983.806 485.522 49.9029
C1 -1.24783 490.495 53.8844
C1 8.74256 490.497 53.9223
C1 18.7242 490.491 53.9199
C1 28.7039 490.501 53.8814
C1 38.6856 490.534 53.8205
C1 48.6697 490.581 53.7488
C1 58.6556 490.642 53.6746
C1 68.6432 490.714 53.6027
C1 78.6326 490.792 53.5356
C1 88.6239 490.87 53.475
C1 98.617 490.939 53.4211
C1 108.612 490.994 53.3719
C1 118.608 491.028 53.3257
C1 128.606 491.036 53.2803
C1 138.605 491.02 53.2333
C1 148.605 490.974 53.1842
C1 158.607 490.894 53.132
C1 168.61 490.771 53.0754
C1 178.612 490.597 53.0116
C1 188.611 490.366 52.9369
C1 198.605 490.098 52.8518
C1 208.594 489.78 52.7605
C1 218.579 489.448 52.6721
C1 228.563 489.112 52.5976
C1 238.555 488.997 52.5426
C1 248.48 487.73 52.5191
C1 258.497 487.444 52.5383
C1 268.507 487.854 52.5878
C1 278.474 488.738 52.6362
C1 288.483 488.706 52.6782
C1 298.493 488.518 52.7012
C1 308.501 488.217 52.7056
C1 318.503 487.832 52.6979
C1 328.502 487.382 52.6743
C1 338.495 486.907 52.6418
C1 348.492 486.549 52.5941
C1 358.487 486.239 52.5661
C1 368.481 486.158 52.5297
C1 378.473 486.523 52.4417
C1 388.475 486.951 52.4007
C1 398.473 487.395 52.41
C1 408.45 487.903 52.4327
C1 418.443 488.558 52.2677
C1 428.447 488.067 51.8772
C1 438.448 487.393 51.4255
C1 448.478 486.954 51.0544
C1 458.517 486.635 50.767
C1 468.549 486.302 50.5239
C1 478.57 485.881 50.2937
C1 488.579 485.356 50.0624
C1 498.575 484.726 49.8263
C1 508.56 484.011 49.593
C1 518.534 483.237 49.3726
C1 528.504 482.436 49.1761
C1 538.477 481.669 49.0219
C1 548.461 481.004 48.9345
C1 558.465 480.539 48.9407
C1 568.474 480.308 49.0527
C1 578.478 480.25 49.2621
C1 588.475 480.321 49.5746
C1 598.463 480.475 49.9724
C1 608.445 480.624 50.407
C1 618.427 480.752 50.8555
C1 628.406 480.915 51.3276
C1 638.374 481.086 51.8054
C1 648.248 482.166 52.5707
C1 658.161 482.899 53.1431
C1 668.111 482.746 53.257
C1 678.027 482.689 53.3169
C1 687.907 482.679 53.1345
C1 697.763 482.446 52.4578
C1 707.648 482.626 51.7786
C1 717.557 483.038 51.0531
C1 727.486 483.305 50.2352
C1 737.422 483.443 49.3514
C1 747.357 483.467 48.4238
C1 757.287 483.45 47.4702
C1 767.211 483.463 46.4943
C1 777.13 483.55 45.4896
C1 787.044 483.716 44.4445
C1 796.955 483.934 43.3479
C1 806.87 484.158 42.1944
C1 816.799 484.302 41.0047
C1 826.758 484.187 39.8545
C1 836.737 484.016 38.7805
C1 846.751 483.796 37.8354
C1 856.797 483.481 37.0765
C1 866.861 483.05 36.5165
C1 876.937 482.475 36.1676
C1 887.005 481.759 36.0389
C1 897.045 480.879 36.1112
C1 907.025 479.665 36.5152
C1 916.9 478.095 37.1427
C1 926.841 476.568 37.8044
C1 936.243 474.624 41.0122
C1 943.934 471.932 46.851
C1 952.383 469.415 51.6343
C1 961.55 472.353 48.87
C1 969.736 476.701 45.1166
C1 979.672 477.257 46.0352
C1 3.76489 482.866 49.8027
C1 13.7276 482.542 50.4948
C1 23.7117 482.634 50.2647
C1 33.7001 482.725 50.0717
C1 43.6903 482.842 49.8538
C1 53.6819 482.983 49.6161
C1 63.6739 483.15 49.3626
C1 73.665 483.347 49.0866
C1 83.6539 483.576 48.7839
C1 93.6399 483.841 48.4456
C1 103.623 484.14 48.0775
C1 113.604 484.469 47.6838
C1 123.584 484.824 47.2744
C1 133.565 485.196 46.8642
C1 143.547 485.577 46.4641
C1 153.529 485.961 46.077
C1 163.513 486.347 45.7041
C1 173.496 486.739 45.3426
C1 183.482 487.132 44.9959
C1 193.479 487.483 44.688
C1 203.471 487.81 44.4156
C1 213.473 488.132 44.1867
C1 223.485 488.39 44.0223
C1 233.502 488.567 43.9258
C1 243.517 488.667 43.8812
C1 253.523 488.608 43.9378
C1 263.517 488.486 43.961
C1 273.516 488.355 43.9653
C1 283.509 487.982 44.0448
C1 293.493 487.486 44.1189
C1 303.47 486.926 44.1772
C1 313.445 486.331 44.2191
C1 323.4 485.429 44.3201
C1 333.363 484.55 44.4087
C1 343.354 483.812 44.475
C1 353.372 483.248 44.5216
C1 363.419 482.906 44.5465
C1 373.49 482.881 44.5545
C1 383.554 483.185 44.533
C1 393.604 483.775 44.4462
C1 403.615 484.78 44.2533
C1 413.29 487.466 43.7691
C1 423.169 489.156 43.4588
C1 433.211 490.047 43.3199
C1 443.295 490.509 43.2626
C1 453.389 490.722 43.2057
C1 463.478 490.745 43.1214
C1 473.56 490.592 43.0144
C1 483.631 490.295 42.8917
C1 493.688 489.873 42.7586
C1 503.731 489.346 42.6227
C1 513.757 488.739 42.4944
C1 523.765 488.084 42.3859
C1 533.753 487.426 42.3125
C1 543.725 486.834 42.2905
C1 553.679 486.337 42.3207
C1 563.642 486.066 42.4409
C1 573.617 485.972 42.6322
C1 583.612 485.93 42.8454
C1 593.622 485.869 43.0532
C1 603.644 485.732 43.2454
C1 613.667 485.478 43.4194
C1 623.686 485.106 43.57
C1 633.702 484.604 43.7005
C1 643.711 483.908 43.837
C1 653.658 482.642 44.1964
C1 663.184 479.747 45.1059
C1 673.152 480.084 45.0193
C1 682.883 478.082 45.8654
C1 692.213 481.228 44.2373
C1 702.144 481.483 43.5087
C1 712.051 481.099 42.9454
C1 721.933 480.583 42.4015
C1 731.821 480.158 41.7812
C1 741.718 479.759 41.0851
C1 751.633 479.424 40.3112
C1 761.57 479.089 39.5287
C1 771.527 478.715 38.7993
C1 781.498 478.292 38.1701
C1 791.477 477.824 37.6735
C1 801.461 477.329 37.3319
C1 811.446 476.81 37.1855
C1 821.413 476.065 37.6936
C1 831.371 475.874 36.6754
C1 841.333 475.721 35.5687
C1 851.322 475.48 34.6573
C1 861.336 475.032 34.2196
C1 871.348 474.4 34.2406
C1 881.349 473.66 34.428
C1 891.29 472.773 35.0838
C1 901.186 472.011 34.1138
C1 910.645 470.332 36.9681
C1 920.479 468.869 38.4833
C1 930.344 467.21 37.9044
C1 939.827 465.337 40.5278
C1 947.453 462.6 46.3581
C1 956.409 465.896 43.2049
C1 965.552 468.897 40.4193
C1 975.504 469.517 41.2245
C1 985.436 470.149 41.9545
C1 -1.29794 474.718 47.0179
C1 8.70844 474.603 47.0997
C1 18.7128 474.584 47.0862
C1 28.7172 474.6 47.073
C1 38.7251 474.64 47.0439
C1 48.7358 474.712 46.9811
C1 58.7493 474.821 46.8746
C1 68.7633 474.968 46.7206
C1 78.7767 475.154 46.5192
C1 88.7873 475.379 46.2746
C1 98.7953 475.644 45.9837
C1 108.799 475.948 45.6408
C1 118.797 476.288 45.2485
C1 128.789 476.659 44.8113
C1 138.778 477.052 44.3429
C1 148.764 477.46 43.8612
C1 158.748 477.873 43.3835
C1 168.733 478.294 42.9091
C1 178.713 478.734 42.4067
C1 188.684 479.195 41.8671
C1 198.673 479.523 41.5461
C1 208.653 479.977 40.9951
C1 218.62 480.462 40.3694
C1 228.59 480.892 39.8203
C1 238.566 481.214 39.4316
C1 248.517 481.656 38.8038
C1 258.467 482.093 38.1933
C1 268.425 482.517 37.6501
C1 278.374 482.98 37.0956
C1 288.345 483.305 36.6561
C1 298.332 483.579 36.2936
C1 308.331 483.777 36.0274
C1 318.339 483.907 35.8418
C1 328.357 483.96 35.7705
C1 338.377 483.96 35.7921
C1 348.394 483.944 35.8587
C1 358.409 483.944 35.9324
C1 368.422 483.986 35.9784
C1 378.429 484.088 35.9665
C1 388.426 484.263 35.8849
C1 398.412 484.53 35.7151
C1 408.398 484.878 35.4622
C1 418.42 485.16 35.559
C1 428.412 485.375 35.8658
C1 438.401 485.544 36.0783
C1 448.395 485.581 36.2248
C1 458.378 485.508 36.2872
C1 468.362 485.428 36.1984
C1 478.353 485.331 35.9876
C1 488.353 485.211 35.6905
C1 498.364 485.054 35.3472
C1 508.389 484.841 35.0032
C1 518.425 484.564 34.6929
C1 528.471 484.224 34.4451
C1 538.52 483.84 34.2856
C1 548.566 483.476 34.2098
C1 558.626 483.14 34.2677
C1 568.677 482.787 34.4924
C1 578.698 482.395 34.8374
C1 588.695 481.958 35.2383
C1 598.672 481.461 35.6617
C1 608.63 480.902 36.0714
C1 618.573 480.311 36.4254
C1 628.508 479.715 36.6835
C1 638.437 479.133 36.8106
C1 648.365 478.576 36.7699
C1 658.297 478.052 36.5843
C1 668.232 477.177 36.8452
C1 678.136 475.984 37.3486
C1 688.028 474.694 37.9661
C1 697.253 473.057 41.4446
C1 706.618 474.227 38.1878
C1 716.423 472.748 39.573
C1 726.294 472.762 37.9765
C1 736.229 471.821 38.4883
C1 746.2 471.286 38.2859
C1 756.164 470.842 37.9292
C1 766.126 470.412 37.5354
C1 776.092 469.966 37.1385
C1 786.064 469.498 36.7321
C1 796.042 469.024 36.2643
C1 806.02 468.578 35.6611
C1 815.981 468.228 34.8162
C1 825.837 468.383 33.0685
C1 835.803 468.159 32.0917
C1 845.813 467.754 31.4974
C1 855.836 467.121 31.519
C1 865.823 466.366 32.0143
C1 875.781 465.561 32.7144
C1 885.693 464.641 33.7461
C1 895.638 463.749 34.5266
C1 905.405 463.18 32.3401
C1 915.379 462.788 32.4414
C1 923.956 459.673 36.559
C1 933.611 457.779 38.5305
C1 943.345 455.978 40.1377
C1 953.316 456.672 40.934
C1 961.954 460.128 37.2159
C1 971.386 462.751 35.1304
C1 981.303 462.926 36.3756
C1 3.7353 471.442 39.0372
C1 13.6983 470.616 39.4046
C1 23.7049 470.407 39.5094
C1 33.7083 470.318 39.5576
C1 43.7088 470.238 39.5916
C1 53.7094 470.188 39.595
C1 63.7123 470.169 39.5579
C1 73.7164 470.213 39.4619
C1 83.7213 470.299 39.3194
C1 93.7242 470.413 39.1465
C1 103.727 470.48 38.9915
C1 113.729 470.541 38.8343
C1 123.733 470.616 38.6658
C1 133.739 470.724 38.4755
C1 143.748 470.886 38.2475
C1 153.756 471.121 37.962
C1 163.758 471.435 37.6074
C1 173.751 471.806 37.1912
C1 183.735 472.197 36.7412
C1 193.715 472.621 36.2757
C1 203.691 472.957 35.909
C1 213.682 473.148 35.6933
C1 223.675 473.351 35.4893
C1 233.666 473.562 35.2902
C1 243.655 473.73 35.1732
C1 253.645 473.92 35.0879
C1 263.634 474.168 34.9848
C1 273.627 474.487 34.7906
C1 283.42 475.397 33.0291
C1 293.388 475.805 32.4127
C1 303.379 475.891 32.3861
C1 313.363 475.976 32.3244
C1 323.355 476.074 32.1827
C1 333.358 476.171 32.0046
C1 343.375 476.261 31.8494
C1 353.402 476.336 31.76
C1 363.434 476.392 31.7567
C1 373.47 476.425 31.8456
C1 383.512 476.437 32.0374
C1 393.56 476.434 32.3864
C1 403.606 476.447 32.964
C1 413.625 476.526 33.8632
C1 423.594 476.641 34.9872
C1 433.516 476.808 36.2641
C1 443.397 477.054 37.6804
C1 453.304 477.298 38.923
C1 463.308 477.253 39.0021
C1 473.305 477.118 38.6986
C1 483.292 476.943 38.2225
C1 493.262 476.716 37.5431
C1 503.221 476.438 36.7275
C1 513.183 476.123 35.9072
C1 523.162 475.777 35.1657
C1 533.169 475.396 34.5393
C1 543.216 475.009 34.1881
C1 553.274 474.667 34.2203
C1 563.309 474.329 34.5094
C1 573.303 473.953 35.0331
C1 583.26 473.558 35.7383
C1 593.188 473.135 36.5559
C1 603.099 472.681 37.4621
C1 613.031 472.159 38.1172
C1 622.984 471.593 38.5567
C1 632.955 470.978 38.6474
C1 642.933 470.343 38.3858
C1 652.887 469.691 37.5539
C1 662.569 469.123 35.1698
C1 672.146 468.005 37.6539
C1 682.003 466.748 37.7435
C1 691.858 465.443 37.9921
C1 701.669 465.772 36.2111
C1 711.273 466.622 33.6206
C1 720.891 464.727 35.5566
C1 730.768 464.727 34.0633
C1 740.737 464.206 33.8457
C1 750.696 463.678 33.6233
C1 760.653 463.198 33.3167
C1 770.61 462.734 32.9675
C1 780.564 462.277 32.5715
C1 790.517 461.819 32.1223
C1 800.466 461.362 31.59
C1 810.415 460.919 30.9486
C1 820.38 460.482 30.3036
C1 830.361 460.031 29.9646
C1 840.343 459.529 29.9152
C1 850.297 458.868 30.5189
C1 860.228 458.113 31.3926
C1 870.202 457.363 31.6574
C1 880.184 456.658 31.4371
C1 890.157 455.861 31.8635
C1 900.037 454.834 33.2153
C1 910.033 454.333 32.6007
C1 919.512 454.231 29.4471
C1 929.455 454.346 30.1273
C1 939.386 454.267 31.149
C1 949.218 452.999 32.6049
C1 958.757 450.943 34.8852
C1 968.04 453.715 32.544
C1 977.192 456.622 29.7657
C1 986.966 456.123 31.6585
C1 -1.23217 468.353 30.9297
C1 8.76505 468.275 31.0164
C1 18.7441 468.219 31.113
C1 28.7295 468.132 31.1714
C1 38.7135 468.03 31.218
C1 48.6922 467.942 31.2446
C1 58.6661 467.898 31.2321
C1 68.6385 467.917 31.1642
C1 78.6163 467.984 31.0429
C1 88.6059 468.066 30.8876
C1 98.6139 468.072 30.7455
C1 108.612 468.023 30.6216
C1 118.606 467.987 30.491
C1 128.601 467.964 30.3503
C1 138.596 467.944 30.1965
C1 148.591 467.921 30.022
C1 158.586 467.893 29.8236
C1 168.583 467.855 29.6084
C1 178.585 467.81 29.393
C1 188.596 467.778 29.193
C1 198.62 467.743 29.0518
C1 208.648 467.636 29.0462
C1 218.673 467.482 29.1378
C1 228.697 467.304 29.3021
C1 238.724 467.125 29.532
C1 248.75 466.968 29.8448
C1 258.772 466.847 30.2186
C1 268.782 466.776 30.6778
C1 278.784 466.743 31.1426
C1 288.717 466.977 32.3673
C1 298.456 467.488 34.6085
C1 308.445 467.706 35.0724
C1 318.449 467.89 35.2229
C1 328.452 468.077 35.2861
C1 338.449 468.266 35.34
C1 348.44 468.467 35.4729
C1 358.421 468.677 35.7197
C1 368.395 468.888 36.0733
C1 378.372 469.005 36.365
C1 388.34 469.077 36.7408
C1 398.303 469.139 37.2848
C1 408.261 469.169 37.9909
C1 418.218 469.138 38.8021
C1 428.188 469.062 39.6354
C1 438.182 468.961 40.3441
C1 448.201 468.894 40.8141
C1 458.229 468.865 40.9634
C1 468.232 468.728 40.6821
C1 478.218 468.581 40.3354
C1 488.205 468.439 40.0188
C1 498.186 468.307 39.6976
C1 508.157 468.18 39.3691
C1 518.116 468.054 39.0805
C1 528.071 467.903 38.821
C1 538.018 467.717 38.6691
C1 547.976 467.385 38.5658
C1 557.93 466.906 38.4716
C1 567.847 466.24 38.2696
C1 577.774 465.57 38.1691
C1 587.715 464.911 38.0575
C1 597.656 464.301 37.8999
C1 607.596 463.769 37.6934
C1 617.532 463.277 37.4379
C1 627.439 462.803 36.9632
C1 637.342 462.234 36.6592
C1 647.241 461.528 36.5297
C1 657.135 460.804 35.7322
C1 666.962 460.136 34.4457
C1 676.412 461.3 31.5376
C1 686.338 460.274 31.4761
C1 696.11 458.419 32.3296
C1 705.703 459.287 29.7728
C1 715.627 458.408 29.9077
C1 725.349 456.788 31.3658
C1 735.286 456.508 30.5998
C1 745.237 455.96 30.4088
C1 755.194 455.428 30.2192
C1 765.149 454.958 29.8891
C1 775.106 454.413 29.7306
C1 785.06 453.812 29.7248
C1 795.017 453.203 29.7644
C1 804.98 452.635 29.7192
C1 814.954 452.125 29.5381
C1 824.933 451.654 29.2614
C1 834.908 451.177 29.0278
C1 844.865 450.752 28.3919
C1 854.702 449.92 29.8609
C1 864.653 449.225 30.0784
C1 874.604 448.455 30.3999
C1 884.569 447.704 30.5326
C1 894.54 446.94 30.615
C1 904.532 446.271 30.5776
C1 914.548 445.643 30.4494
C1 924.578 445.625 29.7342
C1 934.544 445.908 28.5343
C1 944.256 447.008 26.3569
C1 953.67 444.848 28.8766
C1 962.922 447.702 26.3976
C1 972.741 448.973 25.137
C1 982.699 449.29 25.6835
C1 3.71125 459.701 30.1156
C1 13.7078 459.624 30.2219
C1 23.668 459.686 29.4632
C1 33.65 459.654 29.2063
C1 43.6397 459.613 29.017
C1 53.6374 459.573 28.9169
C1 63.639 459.539 28.9437
C1 73.6355 459.523 29.0839
C1 83.6228 459.525 29.3011
C1 93.5933 459.505 29.6848
C1 103.57 459.466 29.5045
C1 113.562 459.422 29.3841
C1 123.558 459.397 29.2414
C1 133.554 459.371 29.1408
C1 143.551 459.33 29.133
C1 153.547 459.277 29.2267
C1 163.546 459.222 29.407
C1 173.551 459.175 29.6387
C1 183.568 459.144 29.6543
C1 193.572 459.11 29.058
C1 203.547 459.095 29.9915
C1 213.525 459.096 30.8702