ITEM: TIMESTEP
2100000
ITEM: NUMBER OF ATOMS
11600
ITEM: BOX BOUNDS ss ss pp
2.0175510778565041e+02 7.9520690303274807e+02
2.0099867026000413e+02 7.8958760283297545e+02
-2.0000000000000000e+02 2.0000000000000000e+02
ITEM: ATOMS id xu yu zu c_k c_p c_bo c_di 
1440 477.889 257.192 -100.259 0.0195291 -2.42988 2.80643 0.658512 
1341 494.573 254.27 -103.413 0.0190817 -3.70694 2.02939 0.508445 
1340 485.766 250.787 -100.187 0.0281294 -4.00713 1.91676 0.585066 
1441 487.306 260.676 -100.387 0.00605453 2.29843 2.94898 0.565863 
1806 277.378 357.859 -100.586 0.0242323 -6.63342 0.0659853 0.486809 
1904 269.625 372.17 -104.541 0.00422262 -7.12622 0.0547421 0.387707 
1905 278.355 367.341 -103.689 2.4289e-05 -5.68489 0.124232 0.579118 
2005 278.056 377.347 -103.084 0.00898916 -5.47957 0.121429 0.592853 
2002 253.762 392.823 -106.33 0.00349215 -6.90726 0.076504 0.215371 
1902 253.182 383.215 -103.667 0.0199437 -7.76061 0.0247401 0.115983 
1901 245.318 389.249 -102.35 0.00779129 -5.95788 0.0224215 0.0690542 
2003 261.395 386.671 -108.221 0.000451598 -7.18745 0.0448675 0.296312 
1903 261.775 378.154 -103.007 0.0167128 -8.96085 0.0144664 0.212151 
2102 261.871 396.28 -111.003 0.0161546 -5.79441 0.0515734 0.415811 
2004 270.093 381.816 -107.191 0.00456798 -6.33157 0.0507795 0.419822 
2103 269.88 391.828 -107.018 0.0100182 -5.61156 0.0449893 0.554416 
2104 275.801 386.824 -100.692 0.00860758 -6.2208 0.0638471 0.589299 
2001 245.667 398.648 -105.759 0.0153298 -6.87485 0.00839517 0.0204528 
2101 253.116 401.019 -111.999 0.000836009 -5.15315 0.028416 0.201101 
2201 253.202 410.827 -113.888 0.0217656 -4.34359 0.0103594 0.117413 
2301 259.874 415.87 -108.416 0.00146682 -3.81182 0.00484705 0.268114 
2202 261.509 406.271 -110.682 0.00854721 -4.41406 0.0112156 0.444871 
2203 267.682 401.296 -104.588 0.0138991 -6.04172 0.0576588 0.545709 
2302 262.995 409.536 -101.341 0.00821819 -6.9913 0.0679307 0.427582 
2401 255.383 424.311 -105.479 0.0343104 -4.00506 0.00110116 0.0662658 
1735 430.595 258.243 -80.3107 0.0257402 -5.03708 0.174619 0.627001 
1537 455.202 253.282 -87.6809 0.0148527 -5.47057 0.163833 0.574755 
1637 446.217 257.709 -87.2709 0.000968347 -5.25837 0.247801 0.570326 
1636 439.9 254.558 -80.1338 0.0134229 -5.12485 0.270467 0.521058 
1538 462.306 257.539 -93.3483 0.000370868 -5.34174 0.380587 0.447121 
1438 464.77 250.491 -86.7119 0.00549661 -6.5144 0.0460673 0.506019 
1439 471.229 252.98 -93.9501 0.00444976 -4.83485 0.820349 0.599994 
1338 474.578 249.399 -85.1715 0.0150582 -1.21543 1.53561 0.708729 
1139 488.713 240.516 -83.1674 0.000753403 -5.28426 1.51972 0.371661 
1140 495.731 240.48 -90.3778 0.0033037 -7.22771 0.430527 0.165646 
1040 498.407 240.93 -80.7649 0.0107745 -8.93889 0.0547575 0.0973364 
1339 480.969 253.091 -91.7883 0.00254308 2.82799 2.60116 0.687495 
1241 494.147 245.333 -98.9793 0.000884662 -6.64578 0.406382 0.279213 
1240 487.082 245.197 -91.9263 0.0107959 -6.88466 0.53644 0.396041 
1542 495.353 259.386 -86.8198 0.00793961 -9.5515 0.287703 0.207101 
1239 484.527 249.528 -83.3027 0.00406034 -3.39216 3.02772 0.766479 
1736 438.015 263.024 -85.0592 0.0286759 -5.59886 0.236363 0.535085 
1836 430.997 268.235 -80.1508 0.0132291 -6.55649 0.153684 0.460868 
1638 454.23 262.798 -90.5202 0.0128512 -6.05507 0.357565 0.370763 
1737 446.998 267.47 -85.3606 0.0149592 -7.07424 0.21673 0.329007 
1738 456.566 269.944 -83.9615 0.0098332 -8.64452 0.0733118 0.130194 
1539 470.445 262.663 -96.2204 0.00518858 -5.27678 0.569571 0.415731 
1639 463.251 267.159 -90.8641 0.011993 -7.35539 0.161356 0.200982 
1640 472.662 270.435 -90.3156 0.0203357 -5.57409 1.48937 0.191357 
1739 465.697 273.999 -83.9715 0.000406146 -7.17651 0.722782 0.0798273 
1740 475.32 275.77 -82.227 0.0546301 -4.40132 2.14737 0.247516 
1540 479.912 265.894 -95.7267 0.0190634 -0.474705 2.49383 0.320908 
1442 496.581 261.277 -96.6014 0.0182108 -3.65696 3.0727 0.356944 
1641 482.007 270.243 -86.9352 0.00711492 -3.68639 3.48812 0.359801 
1541 489.063 265.382 -91.7572 0.0118397 -3.16654 3.83432 0.281795 
1642 487.448 263.381 -82.1047 0.0212252 -7.90999 0.502747 0.28385 
1413 321.144 298.221 -80.4723 0.00147296 -5.22851 0.103075 0.631656 
1410 295.361 311.731 -82.9341 0.0435553 -5.68542 0.166197 0.275352 
1510 302.465 314.096 -89.5414 0.0103203 -5.19866 0.238303 0.575634 
1511 311.115 311.27 -85.3382 0.0226016 -5.155 0.21367 0.557758 
1411 303.04 305.463 -84.4555 0.00279741 -5.48978 0.232266 0.478979 
1412 312.178 301.47 -83.4898 0.0235922 -5.2176 0.312757 0.470217 
1512 319.006 307.979 -80.1794 0.00551111 -5.78999 0.130625 0.539242 
1507 279.293 332.162 -85.3438 0.0158474 -8.72883 0.0675747 0.0693023 
1408 280.195 323.742 -80.0332 0.00246682 -8.20412 0.10007 0.10552 
1509 293.854 319.225 -89.4432 0.00399064 -5.47739 0.502399 0.367956 
1608 285.449 333.934 -93.0388 0.0263205 -6.87968 0.32079 0.173772 
1708 293.993 338.189 -95.935 0.0156761 -4.1378 0.28185 0.557864 
1609 293.848 328.42 -93.5503 0.00219674 -0.625282 0.899341 0.3528 
1508 286.151 325.385 -87.9135 0.00452069 -7.8122 0.0890461 0.157203 
1810 297.837 334.43 -82.5861 0.0190498 -0.647492 0.935798 0.624256 
1409 289.073 319.173 -80.6648 0.0157923 -9.57437 0.0304744 0.15306 
1611 306.913 319.974 -82.8125 0.0140885 -4.14046 0.19965 0.595174 
1709 301.977 333.984 -91.6465 0.0176384 -5.00384 0.198944 0.684233 
1610 302.468 324.053 -90.78 0.00905228 -4.05659 0.350966 0.571654 
1710 306.601 329.887 -83.7585 0.0207551 -5.38605 0.730593 0.570787 
1504 257.106 350.834 -80.6585 0.0278835 -8.86124 0.022953 0.0330129 
1607 278.3 340.534 -90.6841 0.0101643 -8.89597 0.0634869 0.127039 
1605 263.508 352.38 -88.1809 0.0127131 -8.65549 0.0174796 0.10606 
1706 277.393 348.964 -95.9782 0.0363294 -7.88112 0.0514105 0.277664 
1705 271.521 356.336 -92.6387 0.014515 -10.3361 0.071349 0.20067 
1606 272.404 347.894 -87.372 0.0232988 -10.6746 0.0166178 0.144082 
1505 264.551 344.365 -82.284 0.00366064 -8.65699 0.00918299 0.0864911 
1506 273.238 339.435 -82.1218 0.00104327 -9.74375 0.0257021 0.0947599 
1809 298.427 342.693 -88.1755 0.0295417 -5.81264 0.143874 0.69966 
1707 285.327 343.001 -97.3263 0.0019571 -6.50581 0.177779 0.355599 
1807 285.923 352.776 -99.5002 0.0227069 -5.66693 0.127685 0.524787 
1808 293.534 348.156 -94.9394 0.0241963 -5.22737 0.123645 0.62719 
1907 290.977 357.443 -92.2418 0.0159381 -6.1174 0.0196781 0.473439 
1908 293.029 350.624 -85.2418 0.0209948 -6.97779 0.3044 0.402232 
2008 285.244 356.797 -84.0726 0.0129294 -9.75351 0.00327209 0.272779 
1909 291.048 341.595 -81.5351 0.00528269 -8.17771 1.03313 0.422037 
1604 255.718 358.525 -86.89 0.00949465 -8.58922 0.0133381 0.0519643 
1803 253.521 374.55 -98.67 0.00103758 -7.8691 0.0114935 0.0950125 
1703 254.604 366.512 -92.8091 0.0028066 -8.33484 0.0214087 0.084556 
1702 248.949 374.195 -89.7916 0.0127212 -8.85876 0.0605319 0.0525302 
1603 249.997 366.174 -83.9492 0.0486683 -9.04673 0.0643878 0.0438554 
1602 244.365 373.843 -80.916 0.0125849 -8.44348 0.0257413 0.052704 
1804 261.646 368.785 -99.5144 0.0034459 -8.4846 0.0987105 0.0972566 
1704 262.522 360.509 -93.9314 0.0073249 -8.67556 0.061562 0.111063 
1805 270.626 364.736 -97.9386 0.00473075 -8.02293 0.136707 0.347796 
2206 270.07 377.089 -88.9119 0.0104451 -12.3994 0.0603924 0.223613 
2106 278.791 372.465 -87.4017 0.0242471 -9.9361 0.198221 0.257875 
2207 270.434 368.838 -83.272 0.0111374 -12.5448 0.043696 0.0982878 
2306 262.604 375.01 -82.5985 0.0219799 -13.2031 0.0685405 0.0870059 
2107 279.216 364.385 -81.6036 0.0426481 -10.8808 0.381919 0.143264 
2006 283.252 372.064 -96.3515 0.00820168 -5.56143 0.0167304 0.498715 
1906 285.922 362.795 -99.0128 0.000906798 -5.39614 0.0705124 0.608999 
2007 285.493 365.299 -89.3374 0.0201773 -7.73339 0.00828284 0.334738 
1801 241.073 389.186 -93.3055 0.0411328 -7.60624 0.00591854 0.018142 
1701 242.71 381.53 -87.0914 0.00361833 -7.85315 0.00541447 0.0245803 
1802 246.73 381.481 -96.2391 0.00372609 -7.08428 0.0525235 0.100902 
2405 255.34 390.165 -86.4643 0.000409694 -12.7315 0.0519128 0.138994 
2305 262.002 383.003 -88.5893 0.00466745 -13.3649 0.0299451 0.115943 
2304 262.234 391.704 -93.5261 0.0272105 -12.0733 0.0246169 0.302534 
2105 278.345 380.309 -93.5428 0.0130303 -8.06788 0.0804821 0.440421 
2205 270.654 386.515 -92.1301 0.00472537 -9.77886 0.0738825 0.402208 
2204 270.801 394.903 -97.5546 0.00584901 -8.50841 0.0144038 0.507766 
3109 270.893 395.578 -81.0053 0.0110903 15.3135 9.19517 0.471519 
2603 240.151 411.344 -88.7723 0.00096928 -8.07849 0.0459775 0.111482 
2604 241.307 403.364 -82.8892 0.0058397 -8.98523 0.0639261 0.11165 
2404 254.556 398.036 -92.5905 0.00200902 -11.4822 0.0221693 0.202886 
2504 249.649 397.965 -83.8839 0.00868367 -10.8296 0.0457971 0.140146 
2402 256.296 416.657 -99.1143 0.00699648 -6.98048 0.0589024 0.188191 
2403 255.783 407.727 -94.6567 0.0257214 -10.1331 0.0383953 0.23355 
2502 247.792 413.727 -94.7532 0.0347983 -8.99714 0.00790122 0.083569 
2503 247.078 404.489 -90.997 0.0193296 -9.69283 0.0429133 0.158163 
2303 263.491 401.416 -95.5232 0.00703368 -10.4105 0.0142523 0.378597 
3308 270.583 415.527 -84.1671 0.00857589 -4.76222 1.85943 0.27182 
3209 270.795 405.586 -82.9663 0.0165498 -5.67443 3.11905 0.222003 
3309 279.416 410.822 -82.5348 0.00109741 12.3213 4.18613 0.532862 
3210 279.487 400.876 -82.3528 0.0146678 -3.38184 3.9292 0.633126 
3208 262.198 410.591 -81.8791 0.0228801 -11.2269 0.0803431 0.176998 
2901 220.985 432.742 -80.2144 0.0157205 -6.10648 0.0813565 0.0519634 
2702 233.738 418.459 -85.9568 0.00954773 -7.64886 0.0633462 0.126903 
2602 240.503 420.366 -93.0686 0.0226266 -6.80537 0.0643987 0.0518641 
2701 233.479 427.167 -90.8382 0.0148357 -5.78977 0.0920579 0.0557584 
2801 226.279 433.78 -88.652 0.0153772 -6.20277 0.0544868 0.0375066 
2802 227.33 425.554 -83.099 0.00638047 -6.58748 0.115089 0.10929 
2601 241.441 429.761 -96.3161 0.00874503 -6.09209 0.033211 0.00804982 
2501 248.678 423.087 -98.1589 0.0081386 -6.03569 0.0318573 0.0603237 
3406 252.573 435.014 -84.5142 0.00403852 -6.83865 0.65887 0.508311 
3306 252.76 424.979 -83.7801 0.0235793 -7.02663 1.1378 0.406075 
3305 244.407 430.143 -81.5395 0.015615 -9.01981 0.599225 0.388706 
3407 261.25 430.213 -83.7001 0.00971154 -6.577 0.473768 0.432707 
3307 261.641 420.233 -84.4799 0.00512801 -8.71798 1.20845 0.257035 
3408 269.967 425.454 -82.7378 0.00369804 -5.60713 0.582765 0.482873 
3409 278.401 420.555 -80.5501 0.000406178 -5.04326 0.269803 0.739761 
3404 235.211 444.656 -82.434 0.00676642 -7.43479 0.175768 0.557158 
3503 235.46 454.435 -80.2177 0.00596263 -5.25646 0.12409 0.512231 
3403 226.782 449.493 -80.0771 0.0239097 -7.3302 0.0281378 0.544292 
3405 243.873 439.885 -83.922 0.00199507 -7.06928 0.26285 0.600574 
3502 226.845 459.505 -80.316 0.00299307 -4.27667 0.0295828 0.596609 
938 493.252 239.224 -64.4204 0.0216294 -8.20177 0.344781 0.0533615 
1834 415.094 259.089 -73.3629 0.0107352 -4.84092 0.273408 0.663076 
1833 409.104 258.285 -65.3342 3.71606e-05 -2.53293 0.535528 0.444415 
1733 419.079 257.723 -64.3214 0.0509894 -6.51621 0.424547 0.284021 
1734 424.595 256.052 -72.5614 0.045595 -5.07341 0.340046 0.471472 
1635 434.542 255.209 -71.6625 0.0380226 -6.40542 0.449931 0.315485 
1634 429.044 258.81 -64.0639 0.0239052 -7.66854 0.198317 0.16416 
1535 444.537 256.089 -71.4273 0.00630536 -7.80747 0.190386 0.247373 
1536 449.716 252.776 -79.318 0.0192573 -6.49733 0.0311464 0.471434 
1436 453.728 259.65 -73.2797 0.00859728 -6.61485 0.223064 0.390137 
1437 459.652 253.683 -78.7383 0.0056978 -7.1583 0.121758 0.535773 
1337 469.371 255.916 -79.6953 0.00144371 -9.68675 0.138879 0.596098 
1238 478.132 252.455 -76.333 0.00578913 -8.49852 1.29585 0.625275 
1237 471.084 255.194 -69.8735 0.00304531 -8.90891 0.367564 0.486481 
1137 475.212 246.065 -69.2806 0.00650573 -7.43009 0.300471 0.350354 
1236 463.197 257.149 -64.0845 0.00471092 -5.69694 0.250354 0.403279 
1136 469.171 249.366 -62.0069 0.00601657 -8.01058 0.228507 0.202702 
1039 491.461 242.402 -73.7123 0.00236376 -6.83958 0.175246 0.247012 
1138 481.829 243.081 -76.2055 0.0107303 -0.906693 1.32963 0.622095 
1038 484.484 243.447 -66.5857 0.00639299 -8.37766 0.160814 0.234757 
1844 493.683 255.549 -62.6006 0.0126105 5.32039 9.43422 0.349023 
1215 332.508 276.493 -71.6209 0.0180521 -5.19319 0.297636 0.491196 
1115 334.06 268.269 -66.0525 0.00185877 -5.87688 0.895359 0.328311 
1114 325.476 273.446 -65.2464 0.0111152 -6.87772 0.645786 0.17231 
1216 341.654 274.337 -68.2519 0.00541232 -5.43724 0.464585 0.651829 
1116 343.503 264.872 -65.475 0.00753874 -5.01208 0.615613 0.516094 
1117 352.938 263.132 -62.5938 0.00625014 -6.62731 0.215089 0.693391 
1217 349.106 272.36 -61.9688 0.0126896 -6.45446 1.89121 0.602233 
2230 367.498 275.59 -62.9968 0.047041 52.705 59.748 0.854169 
2130 375.39 269.656 -61.4967 0.00511998 -6.908 0.618617 0.498338 
2231 376.744 279.456 -62.7758 0.0109479 7.29077 0.594341 0.827252 
1932 399.553 261.119 -66.5812 0.00802942 -4.10162 0.349052 0.635216 
2032 391.029 266.315 -67.0149 0.00611285 -5.45558 0.277389 0.572852 
2131 383.909 273.105 -65.5089 0.0069935 -5.69871 0.344864 0.606331 
2132 393.451 275.355 -63.4459 0.0110586 -5.83671 0.256224 0.531565 
2033 399.638 270.647 -69.6853 0.00784874 -6.12752 0.14097 0.598769 
2133 402.596 279.057 -65.1326 0.00393509 -7.68788 0.309752 0.285191 
1933 406.592 264.286 -72.9481 0.00357021 -5.30298 0.110957 0.681337 
1934 415.289 269.074 -74.2362 0.0293374 -6.4315 0.159016 0.522215 
2035 418.03 276.257 -67.8031 0.00940413 -9.31275 0.0946616 0.142048 
2034 409.155 271.79 -66.8652 0.00274427 -3.89908 0.349934 0.469864 
2134 411.603 279.279 -60.7472 0.00867037 -9.89422 0.195488 0.213545 
1534 438.897 260.431 -64.3767 0.00716743 -8.94502 0.160446 0.0794199 
1835 422.262 263.535 -78.7616 0.0085412 -5.66685 0.0411489 0.571028 
1935 424.972 270.967 -72.6502 0.00517657 -8.54744 0.0421707 0.297943 
1936 433.787 275.501 -73.8222 0.00223176 -8.40767 0.116244 0.183664 
2036 427.72 278.213 -66.3332 0.0198805 -9.43289 0.0443721 0.109111 
1837 440.638 269.45 -77.9047 0.0544404 -8.64868 0.239048 0.324644 
1937 443.244 275.691 -70.5975 0.0175558 -9.18389 0.287623 0.207873 
1838 449.499 274.05 -78.2235 0.00409016 -8.94963 0.0973924 0.089787 
1335 458.094 265.453 -66.3657 0.00903175 -11.2637 0.310067 0.417426 
1435 448.444 263.115 -65.5142 0.0235989 -9.09211 0.126366 0.16621 
1839 459.082 276.551 -76.8924 0.00525727 -8.54133 0.133494 0.0830195 
1336 463.673 261.005 -73.2998 0.0042155 -11.1149 0.417218 0.466282 
1841 477.41 277.301 -72.6278 0.0179225 -4.2437 2.02918 0.527357 
1941 473.791 272.687 -64.4348 0.00931596 -8.71209 0.554363 0.420405 
1942 478.784 264.588 -61.2615 0.0128706 -11.2349 0.371596 0.155951 
1643 495.365 260.146 -76.862 0.0361525 -5.53423 0.225622 0.404243 
1741 480.833 269.077 -77.1009 0.00503298 -6.04306 1.10277 0.683559 
1843 486.871 261.841 -66.5696 0.0180125 -4.2622 1.3957 0.592008 
1842 483.129 271.044 -67.4745 0.00597496 -5.90328 1.6005 0.657716 
1743 496.595 263.746 -67.588 0.0101776 -6.01942 1.32277 0.597573 
1742 490.188 268.09 -73.7783 0.00260767 -4.82145 1.77621 0.775365 
1113 317.73 279.712 -63.9896 0.0189295 -7.94507 0.279152 0.0970584 
1311 304.844 298.646 -77.3324 0.00266673 -7.28782 0.144015 0.261994 
1312 312.991 292.881 -78.3102 0.0101489 -6.22192 0.57423 0.310293 
1213 314.849 285.736 -71.4818 0.00664174 -6.69734 0.469259 0.154947 
1212 307.519 292.419 -69.9791 0.00623451 -8.22128 0.101503 0.121292 
1112 310.405 286.398 -62.5505 0.00557276 -8.34884 0.0897611 0.105765 
1111 304.228 294.055 -60.6765 0.00174317 -8.51293 0.0364321 0.241453 
1214 323.244 280.276 -72.2863 0.00214114 -6.23536 0.544702 0.303175 
1313 322.067 288.634 -77.7335 0.00906908 -4.58663 0.274503 0.484305 
1314 331.126 285.989 -74.4855 0.0138516 -5.30184 0.12499 0.664719 
1414 328.308 295.558 -74.0674 0.00201802 -5.74114 0.169 0.633832 
1315 338.35 283.753 -67.9766 0.00812777 -6.44515 0.235808 0.586978 
1415 331.965 291.121 -65.9231 0.00571138 -7.67422 0.206797 0.538543 
1514 323.285 296.007 -65.4209 0.0108185 -8.61297 0.140758 0.407088 
1316 342.973 279.936 -60.0214 0.0189652 -9.47525 0.4841 0.466524 
2329 365.827 285.184 -60.8518 0.00532531 6.64913 2.64012 1.01896 
2232 386.269 282.011 -61.6426 0.0013337 -1.85273 1.27718 0.554877 
2233 395.743 284.681 -60.5675 0.0121715 -6.00581 1.22898 0.366943 
2037 436.714 282.441 -67.2166 0.0297488 -8.10383 0.088342 0.231041 
2135 420.78 283.193 -61.1274 0.00309472 -9.22513 0.040319 0.140032 
2136 430.434 285.526 -60.0683 0.00359576 -9.38839 0.0497844 0.128334 
1938 452.087 280.306 -70.8278 0.00712789 -8.60219 0.151902 0.111439 
2039 454.777 286.267 -63.2255 0.0088363 -7.41764 0.293099 0.238105 
2038 445.834 281.823 -63.1919 0.0123216 -8.45308 0.235946 0.251396 
2137 439.696 289.225 -60.4844 0.00270995 -7.5743 0.0605483 0.241138 
1840 468.457 279.882 -76.3046 0.00649231 -5.67961 0.369091 0.294156 
1939 461.549 283.38 -69.9821 0.0108618 -6.42113 0.0954339 0.228531 
1940 470.909 281.955 -66.827 0.00764599 -4.6652 1.76368 0.418498 
2040 464.499 286.779 -61.0319 0.00410068 -5.19184 1.19098 0.328366 
1208 277.732 316.331 -64.5738 0.000344754 -8.69607 0.0143453 0.0543331 
1310 299.547 306.897 -75.225 0.0182904 -9.32266 0.113823 0.187224 
1309 291.145 312.141 -73.8811 0.0113926 -8.94399 0.0208986 0.102262 
1210 295.739 307.982 -66.0334 0.0175044 -10.1287 0.0433387 0.0855359 
1209 287.162 312.98 -64.7501 0.0283734 -9.99375 0.112513 0.0691913 
1308 283.765 318.661 -72.2119 0.00907487 -8.7082 0.101251 0.122985 
1211 302.33 300.707 -67.8815 0.0239878 -9.28717 0.0194617 0.093987 
1612 315.204 316.983 -78.1649 0.0198346 -6.18519 0.209757 0.482744 
1613 314.849 309.782 -71.235 0.00860968 -8.74994 0.0509066 0.400269 
1614 317.011 303.585 -63.695 0.0168431 -11.1085 0.0106493 0.19944 
1713 312.018 312.065 -61.9076 0.00214655 -9.18311 0.0360474 0.459288 
1513 322.533 303.439 -72.0312 0.00977235 -7.19006 0.136753 0.543779 
1305 260.045 335.535 -68.0675 0.00570784 -8.67185 0.0933773 0.0171069 
1407 273.988 330.921 -76.9509 0.00929814 -9.26355 0.0706104 0.114499 
1406 265.71 336.467 -76.2579 0.0156966 -8.70851 0.0357305 0.0617538 
1307 274.476 322.287 -71.9251 0.00690871 -8.02614 0.179479 0.092666 
1306 267.157 328.794 -69.9923 0.00439595 -8.62009 0.065873 0.0434876 
1207 269.428 321.75 -63.2676 0.00894724 -7.96993 0.21704 0.0333315 
1206 262.063 328.307 -61.4102 0.0277157 -7.79081 0.263765 0.0157179 
2111 280.644 330.761 -60.456 0.0120415 -11.9519 0.311872 0.19642 
1910 294.137 336.347 -73.5506 0.0136225 -8.3582 0.512091 0.409434 
1911 295.49 327.78 -68.5789 0.00642707 -10.1962 0.0679072 0.200557 
2011 286.663 332.419 -68.2147 0.0276531 -10.4808 0.403436 0.253897 
1912 298.665 322.499 -60.7111 0.0111091 -10.1799 0.0137923 0.16572 
2012 290.178 327.768 -60.105 0.0404366 -11.2511 0.031772 0.200368 
1712 313.542 319.337 -68.585 0.00209057 -6.87359 0.018337 0.483686 
1811 302.741 331.23 -74.5418 0.0085634 -6.26165 0.750526 0.343015 
1711 311.04 325.773 -75.8023 0.0228305 -5.83038 0.0302389 0.50615 
1812 304.262 323.047 -68.9815 0.0426554 -8.14639 0.0568199 0.393138 
1813 308.564 321.288 -60.1429 0.00231476 -7.10297 0.0475607 0.428939 
3046 491.579 336.69 -60.8187 0.000789328 27.6712 20.5546 0.462518 
1503 250.151 357.723 -78.6293 0.0313511 -8.87629 0.0461103 0.0225437 
1405 258.46 343.09 -74.455 0.00405157 -8.87681 0.0545881 0.0204615 
1404 251.535 350.013 -72.4083 0.0153712 -8.88017 0.0678591 0.009967 
1403 245.299 357.447 -69.9157 0.00517909 -8.60182 0.111164 0.0326398 
1304 253.138 342.475 -66.0199 0.0106882 -8.62669 0.0985239 0.0338665 
1303 246.916 349.93 -63.565 0.0136591 -8.19589 0.180175 0.0604771 
1302 241.742 357.944 -60.5799 0.00622637 -7.77436 0.00811488 0.102991 
2108 279.754 356.387 -75.7286 0.00543465 -10.9089 0.373121 0.158498 
2209 271.508 352.678 -71.4839 0.0418258 -13.2792 0.0264047 0.106384 
2109 280.405 348.423 -69.7877 0.0438311 -10.2808 0.344472 0.196229 
2210 272.226 344.822 -65.3239 0.0171727 -13.3181 0.0181672 0.179947 
2309 265.201 351.759 -63.7726 0.0447697 -13.6737 0.00378416 0.10198 
2110 280.846 339.797 -64.7206 0.00498737 -11.4439 0.174905 0.337246 
2010 285.022 340.524 -73.7328 0.00146375 -8.91586 0.904713 0.338042 
2009 286.971 349.661 -77.2901 0.00765508 -9.34803 0.251165 0.230863 
1501 237.665 372.529 -73.626 0.0230057 -6.49994 0.0228255 0.0450354 
1402 239.598 365.177 -67.1394 0.00084811 -7.06328 0.0088835 0.0503595 
1401 234.71 373.357 -64.1212 0.010333 -5.92946 0.0184837 0.00388067 
1502 243.782 365.048 -76.2121 0.0145752 -8.34504 0.0327207 0.0436627 
2407 257.745 374.958 -73.8629 0.00374678 -13.302 0.0339782 0.0407493 
2408 257.682 366.708 -68.2288 0.00943125 -14.274 0.0539816 0.0581302 
2507 251.653 374.373 -65.9565 0.0379982 -12.8415 0.0385691 0.155953 
2409 258.787 359.165 -61.7706 0.00434645 -13.2493 0.0183464 0.145593 
2308 264.171 359.346 -70.2063 0.0119574 -13.4404 0.0163346 0.0513819 
2208 270.893 360.664 -77.4898 0.00166651 -12.7849 0.0393982 0.118522 
2307 263.284 367.071 -76.5046 0.00670521 -13.2636 0.0623121 0.0533683 
2811 274.614 369.144 -65.8726 0.00911743 -10.5023 1.61911 0.321336 
2810 268.981 376.58 -62.2997 0.00169378 -13.8013 0.143079 0.150508 
2910 273.065 377.528 -71.3628 0.00760067 -7.13958 4.43909 0.378351 
2711 276.366 361.121 -60.0208 0.0174239 -11.9208 0.668844 0.284659 
2911 282.373 374.348 -69.3218 0.00614871 -8.24248 0.398524 0.523738 
2812 283.94 365.626 -64.6735 0.0230631 -7.58434 0.252969 0.515887 
2912 287.545 374.104 -60.7762 0.00203427 -5.90609 0.536555 0.444524 
1601 238.648 381.495 -77.953 0.0309909 -8.41665 0.000654985 0.0213125 
2705 238.843 396.659 -67.1303 0.00734067 -7.70843 0.059239 0.384589 
2406 257.16 382.922 -79.8489 0.00721949 -13.045 0.0923017 0.0578075 
2505 251.556 390.76 -77.231 0.0113202 -12.3777 0.0343349 0.040919 
2506 252.33 382.905 -71.1079 0.00774752 -12.5509 0.0285358 0.0689856 
2606 246.861 390.819 -68.4083 0.0155702 -10.5629 0.0265558 0.26856 
2607 246.234 382.312 -63.2055 0.0454223 -9.56393 0.0655608 0.392004 
2908 262.039 392.185 -63.4546 0.00347678 -12.2285 0.134815 0.0658085 
3110 279.83 391.883 -78.284 0.0138407 -5.76365 1.8859 0.719138 
3010 271.775 386.326 -76.4816 0.00614823 -1.75609 8.50143 0.406817 
3009 265.687 393.324 -72.7202 0.0131889 -10.9767 0.193808 0.178152 
2909 267.192 384.775 -67.755 0.0170721 -12.0799 0.0720519 0.143187 
3011 280.936 383.107 -73.8216 0.0088887 -7.09632 1.102 0.566575 
3111 282.004 391.534 -68.5304 0.0046659 -4.64888 0.341792 0.556594 
3012 284.821 382.847 -64.6141 0.019981 -6.45486 0.601725 0.386082 
2704 235.972 402.823 -74.4603 0.0140106 -7.15683 0.019895 0.354499 
2703 236.651 411.499 -79.3974 0.00664287 -8.66347 0.0105709 0.266452 
2804 231.211 410.903 -71.0313 0.0109589 -7.28854 0.129213 0.302033 
2805 238.15 406.465 -65.4062 0.000389249 -3.49787 0.267741 0.647343 
2904 232.66 413.841 -61.5647 0.00195029 -6.52111 0.320773 0.555225 
2605 244.335 397.431 -75.4493 0.00579264 -10.2062 0.0500931 0.206515 
3008 260.343 400.661 -68.4685 0.0293146 -12.1668 0.0948786 0.0753211 
3207 254.089 415.991 -79.528 0.0173056 -12.5125 0.217564 0.175989 
3107 256.374 407.735 -74.2994 0.0275613 -11.9958 0.231372 0.123014 
3106 250.423 414.737 -70.3188 0.0327944 -12.6695 0.0530569 0.119692 
3007 254.475 407.74 -64.4698 0.01121 -11.6122 0.180752 0.135657 
3006 248.133 414.481 -60.5752 0.00316916 -8.05021 0.240451 0.32291 
3212 277.155 398.134 -62.7885 0.0272383 -10.2176 0.797337 0.390344 
3211 278.29 399.892 -72.4827 0.0160284 11.4115 1.51356 0.749235 
3108 263.21 401.399 -78.0329 0.00649399 -11.8716 0.617793 0.169067 
3509 278.073 416.047 -71.587 0.0171439 16.6807 1.59092 1.01961 
3310 285.344 405.965 -75.9084 0.00286659 1.57195 3.45977 0.508537 
3410 286.406 415.775 -77.0406 0.00606073 -2.47837 2.4716 0.807057 
3411 290.783 411.254 -69.2075 0.0371549 -2.14979 1.6763 0.560616 
3311 283.793 404.947 -65.9739 0.00616251 -3.57585 1.45733 0.37495 
3002 218.072 433.074 -70.6277 0.0113104 -5.96615 0.121833 0.34005 
2803 231.334 419.394 -76.3044 0.00677903 -9.94418 0.0189508 0.188707 
2903 226.555 418.993 -67.5279 0.0180299 -6.65406 0.343493 0.413992 
2902 225.489 426.982 -73.399 0.00228795 -7.93661 0.103435 0.297994 
3304 236.994 435.867 -77.9312 0.0153227 -10.4963 0.214871 0.363553 
3003 222.595 427.339 -63.8233 0.010207 -6.40075 0.258285 0.555916 
3104 238.643 428.748 -62.561 0.00817217 -12.2501 0.127396 0.34176 
3103 229.954 433.323 -60.5924 0.0131693 -9.98987 0.0499161 0.535782 
3205 242.205 429.914 -71.8114 0.00456282 -13.6515 0.0803909 0.202361 
3206 247.133 422.277 -75.9979 0.00558298 -12.7472 0.0683539 0.180436 
3506 257.463 435.164 -75.8189 0.0209485 -2.57805 0.54606 0.688817 
3105 245.534 422.395 -66.1394 0.00303139 -12.3728 0.109195 0.178887 
3706 254.219 435.146 -62.1321 0.00676204 -7.16975 0.118563 0.525067 
3609 269.379 417.158 -66.9588 0.00531625 -10.5474 0.978379 0.631166 
3508 272.686 424.214 -73.2405 0.00807588 6.67726 1.56811 0.735756 
3507 266.808 431.802 -75.5871 0.0187774 -4.49671 2.06812 0.507349 
3607 262.752 435.675 -67.3322 0.0116931 -6.20692 0.166953 0.60513 
3608 264.522 425.863 -67.7576 0.00661022 -7.60543 0.678483 0.517033 
3610 277.875 420.364 -62.6579 0.00449298 4.82839 1.53329 0.686619 
3511 293.274 417.08 -61.3703 0.00882631 -5.19295 0.617547 0.468289 
3510 286.399 420.151 -67.9707 0.0105765 -5.07781 0.5121 0.656075 
3102 220.697 436.904 -61.7596 0.00929756 -7.72782 0.111806 0.692936 
3001 215.406 440.368 -76.881 0.0104249 -5.37683 0.0799181 0.063776 
3402 218.898 454.626 -76.701 0.0015082 -5.67532 0.0161267 0.49128 
3301 217.019 455.03 -66.8983 0.0286538 -7.29066 0.0357697 0.335648 
3101 213.428 441.198 -67.1049 0.0135486 -3.40429 0.0268407 0.447139 
3201 210.246 449.351 -62.2419 0.00154797 -6.53718 0.0627001 0.26202 
3202 219.894 446.847 -61.9532 0.00955273 -8.82919 0.1231 0.600872 
3204 235.784 436.606 -68.0274 0.0152023 -12.7377 0.0435901 0.271449 
3303 230.19 442.167 -74.1761 0.00351281 -10.4764 0.0775756 0.371199 
3302 224.671 449.542 -70.2966 0.00139572 -7.40544 0.0419906 0.420804 
3604 240.497 454.073 -71.5947 0.00551206 -7.94809 0.0386821 0.226047 
3203 228.565 442.494 -64.3427 0.0011332 -11.5393 0.09035 0.446106 
3606 255.486 442.269 -69.0517 0.0144368 -6.80126 0.200895 0.418034 
3505 251.551 442.806 -78.2498 0.0074537 -6.44982 0.32212 0.429219 
3504 243.762 448.912 -79.5413 0.00221557 -5.88056 0.155387 0.468866 
3605 246.37 446.088 -70.3229 0.00253628 -7.81812 0.151271 0.387848 
3704 242.502 450.752 -62.3806 0.010854 -7.96935 0.247082 0.124514 
3705 249.658 443.948 -61.1016 0.00869557 -7.51081 0.213294 0.235021 
3401 211.319 460.184 -73.303 0.00729815 -5.41767 0.00276643 0.107345 
3601 217.956 473.372 -75.6433 0.00747272 -3.20797 0.0277454 0.129737 
3501 218.024 464.162 -79.5664 0.0312744 -3.54181 0.00849219 0.401112 
3701 220.93 471.098 -66.356 0.00788039 -5.23222 0.0245118 0.162471 
3801 212.637 469.712 -60.937 0.0230286 -6.8098 0.00855103 0.0657326 
3703 235.234 457.413 -63.7683 0.000289906 -7.82269 0.182469 0.0855544 
3603 233.383 460.985 -72.9091 0.00706231 -5.95639 0.129111 0.281385 
3602 225.846 467.41 -74.2528 0.0153485 -4.37523 0.0252098 0.375446 
3702 228.15 464.324 -65.0305 0.0347309 -6.84983 0.123915 0.132776 
820 370.572 237.719 -45.0055 0.00600338 -6.10574 0.359337 0.366838 
821 380.303 235.251 -44.8481 0.000293596 -5.65881 0.194034 0.480045 
822 390.111 234.412 -43.0238 0.047732 -5.56109 0.08754 0.573371 
937 485.944 239.406 -57.5289 0.013246 -4.4536 0.422586 0.0504868 
838 495.019 235.843 -55.2065 0.0134193 -8.10834 0.111805 0.0452885 
837 488.781 238.725 -47.9278 0.0194878 -6.62963 0.13526 0.0377796 
737 497.804 235.029 -45.6514 0.00112248 -8.41415 0.04927 0.0422157 
816 336.837 258.708 -41.7018 0.0214402 -8.44149 0.0258895 0.0417553 
916 340.455 256.89 -50.8586 0.0181882 -7.49901 0.47147 0.0609877 
1017 345.636 257.151 -59.3791 0.00655375 -5.2266 1.07985 0.313933 
1018 355.211 254.048 -58.9544 0.00024916 -4.43253 0.895551 0.511982 
918 357.877 246.94 -52.3696 0.00783604 -5.20634 1.55832 0.31674 
917 348.782 251.309 -51.8423 0.00657229 -5.93008 1.1165 0.175147 
818 352.968 247.19 -43.7022 0.0207513 -7.98549 0.199667 0.137468 
817 344.484 252.389 -42.8926 0.00785672 -8.22354 0.0799704 0.0989068 
1019 364.818 253.001 -56.1379 0.00534259 -6.05237 0.698582 0.639878 
919 367.631 244.403 -51.8848 0.0282419 -5.31739 0.667648 0.466557 
1020 373.178 252.636 -50.6336 0.00614748 -8.18957 0.594527 0.524115 
920 377.307 243.668 -49.3391 0.00137676 -5.79636 0.276406 0.5623 
1119 366.235 259.426 -48.5452 0.00284659 -9.15713 0.953307 0.506926 
819 361.519 242.019 -44.39 0.0386292 -7.00786 0.419969 0.22258 
1120 371.208 255.078 -41.0823 0.00413432 -12.1465 0.275042 0.302694 
1021 380.145 251.386 -43.5921 0.0212444 -9.45191 0.13352 0.404958 
921 386.062 243.415 -44.5364 0.00362309 -6.62287 0.142585 0.461634 
1134 460.213 259.668 -47.6436 0.0169577 -8.41902 0.245102 0.156915 
1037 477.192 243.766 -59.77 0.00461666 -7.84355 0.18973 0.137308 
1135 465.874 255.339 -54.6738 0.0138239 -8.2293 0.30465 0.178144 
1036 471.223 247.154 -52.5008 0.0117545 -7.88134 0.104507 0.102392 
1035 465.796 251.644 -45.4185 0.0190272 -7.60155 0.177086 0.160598 
935 474.735 247.711 -43.1796 0.00771399 -8.46287 0.16904 0.088077 
936 479.959 242.837 -50.2296 0.0487924 -7.60345 0.224248 0.042914 
1943 484.793 257.297 -57.9599 0.00503538 -6.18715 2.93013 0.381168 
2044 486.342 257.141 -48.1184 0.00720828 -8.47513 1.67075 0.662425 
1944 491.557 251.069 -54.0148 0.00780643 -5.33131 1.05977 0.758959 
2045 495.729 259.492 -50.5192 0.0113892 10.9701 0.97695 0.875931 
836 483.774 244.036 -41.0701 0.00695353 -8.56108 0.0867804 0.0491874 
913 318.629 277.152 -46.8918 0.017628 -8.04093 0.0537105 0.188309 
1014 321.632 274.841 -56.1444 0.0177746 -8.58925 0.111278 0.0540847 
1016 336.804 261.959 -58.7092 0.011458 -6.54404 0.892397 0.168574 
1015 329.014 268.186 -57.4667 0.00677732 -8.56871 0.384561 0.0765701 
915 333.208 263.709 -49.5539 0.0640387 -9.15486 0.103561 0.0254458 
914 325.886 270.4 -48.2465 0.00851674 -9.1151 0.0263903 0.0475734 
815 330.072 265.942 -40.3371 0.0132381 -9.23067 0.019794 0.0567947 