ITEM: TIMESTEP
2100000
ITEM: NUMBER OF ATOMS
11600
ITEM: BOX BOUNDS ss ss pp
2.5630225094083477e+02 7.3818202069261611e+02
2.5162678914017613e+02 7.4262645183786253e+02
-2.0000000000000000e+02 2.0000000000000000e+02
ITEM: ATOMS id xu yu zu c_k c_p c_bo c_di 
2203 317.183 415.101 -121.573 0.0173161 -6.2444 0.0532365 0.371373 
2204 327.118 414.442 -122.477 0.0285811 -5.24361 0.222395 0.493854 
2401 298.772 433.301 -124.69 0.00283543 -6.16642 0.00297888 0.120455 
2402 307.661 431.173 -128.75 0.0034794 -4.99594 0.00998252 0.373765 
2302 312.39 423.1 -125.225 0.00128675 -5.66689 0.0214303 0.47225 
2403 317.533 431.444 -127.239 0.007541 -4.71448 0.400325 0.482383 
2303 322.389 422.926 -125.025 0.00908491 -4.99531 0.26592 0.508046 
2501 302.767 439.437 -131.506 0.0130542 -4.43771 0.00562745 0.301191 
2502 312.474 439.931 -129.159 0.0219837 -4.5764 0.477238 0.434315 
2601 299.149 447.254 -136.58 0.0137496 -3.34705 0.00295617 0.10643 
2602 307.226 448.362 -130.782 0.00623989 0.379726 0.568309 0.438144 
2603 312.811 447.403 -122.532 0.00897267 -4.38165 0.745096 0.605427 
2701 299.686 455.015 -130.288 0.0236966 -2.78742 0.514491 0.196933 
2702 307.122 455.47 -123.696 0.0126238 -3.82283 0.647091 0.709053 
2503 318.047 439.143 -120.874 0.00988839 -5.31199 0.862875 0.372442 
2901 293.537 468.386 -121.046 0.00477587 -3.52754 0.072729 0.0677324 
2801 294.822 463.769 -129.854 0.024296 -3.10154 0.10993 0.0757136 
2802 298.322 459.62 -121.482 0.011147 -1.08329 0.126991 0.422897 
3001 291.507 478.149 -120.468 0.00123634 -3.15535 0.00948182 0.043082 
1706 350.562 373.909 -104.632 0.00407989 -3.36233 0.192255 0.502564 
1804 328.863 387.464 -101.642 0.00123793 -8.99035 0.046121 0.0804276 
1904 331.832 391.431 -110.306 0.00401446 -7.77053 0.0347736 0.182264 
1805 336.681 383.564 -106.489 0.00939376 -7.6868 0.0215949 0.220057 
1806 346.112 381.652 -109.204 0.00579605 -5.73732 0.143683 0.418452 
1905 341.345 389.685 -112.863 0.0228691 -6.02378 0.198114 0.35234 
1906 350.274 390.697 -108.449 0.0170916 -5.80972 0.163724 0.379911 
1807 355.38 382.631 -105.573 0.0600133 -4.66993 0.121423 0.491445 
1705 342.7 378.402 -100.396 0.00193412 -8.53889 0.0199484 0.305538 
1707 360.301 374.536 -102.436 0.00630306 -5.25184 0.157348 0.499954 
2001 302.044 408.629 -102.394 0.0309047 -8.01971 0.0209709 0.0398818 
2002 311.872 407.572 -103.998 0.00705564 -9.16347 0.0362732 0.0547039 
2102 315.336 412.017 -112.252 0.0107895 -9.40298 0.0138613 0.155526 
1902 316.357 399.351 -100.486 0.019179 -9.82967 0.00761009 0.0364363 
2104 331.845 406.046 -119.638 0.0210203 -2.78799 0.313538 0.518701 
1903 324.508 395.777 -105.051 0.00578129 -9.85853 0.0220275 0.0577258 
2103 322.054 407.175 -117.851 0.00371854 -6.78393 0.0524158 0.290245 
2004 326.955 399.311 -114.073 0.0077646 -6.94806 0.0175997 0.221675 
2003 319.98 403.95 -108.604 0.00543229 -9.99947 0.0145934 0.0787787 
2206 333.962 410.338 -106.866 0.00536895 -5.66451 0.139879 0.416469 
2205 334.49 414.88 -115.745 0.0401439 -4.69161 0.851552 0.490743 
2005 336.58 397.807 -116.356 0.0258816 -5.50198 0.309646 0.390203 
2007 348.817 398.239 -102.045 0.000529494 -6.07752 0.198143 0.448557 
2006 345.194 398.768 -111.332 0.0198014 -4.50221 0.343919 0.513763 
2106 342.177 405.292 -104.36 0.00634199 -6.41788 0.234798 0.477026 
2105 340.069 406.864 -113.996 0.00664432 -4.88678 0.617992 0.512869 
2101 306.972 415.354 -107.905 0.00524858 -8.75594 0.029216 0.0824595 
2301 305.261 427.516 -119.761 0.00133851 -8.02803 0.00871493 0.24127 
2202 310.729 420.132 -115.822 0.0198745 -8.9084 0.0300481 0.230082 
2201 300.955 420.768 -113.77 0.00563716 -7.39508 0.00464446 0.0922581 
2705 299.394 433.343 -105.116 0.000865999 -7.48229 0.178455 0.292842 
2505 315.75 428.774 -104.035 0.00331496 -8.47552 0.132461 0.0608078 
2605 308.982 435.552 -106.884 0.00565679 -8.23572 0.151467 0.192485 
2606 306.606 428.644 -100.011 0.000208515 -8.7538 0.0897084 0.168147 
2504 317.568 434.685 -111.918 0.00506167 -7.86796 0.0940856 0.164753 
2404 323.388 430.963 -119.146 0.0224824 -5.27089 0.859148 0.347931 
2305 329.583 419.21 -108.164 0.00122481 -7.95639 0.125853 0.18876 
2304 328.872 422.884 -117.411 0.00228563 -4.94393 0.898007 0.389191 
2406 321.706 420.955 -102.257 0.00212001 -8.83802 0.0431087 0.0847612 
2405 323.62 427.003 -109.969 0.00183527 -7.93065 0.104775 0.148091 
2805 296.177 442.671 -103.449 0.0049722 -6.62417 0.0430014 0.291822 
2703 304.003 447.922 -117.87 0.0160067 0.452991 0.330617 0.730515 
2704 301.703 440.625 -111.509 0.00685274 -7.55929 0.274398 0.335787 
2604 311.222 442.067 -114.186 0.0108133 -7.27161 0.154925 0.355581 
2804 299.643 450.123 -109.156 0.00728629 -6.60299 0.0285672 0.312696 
3002 292.505 472.769 -112.098 0.00943046 -4.15979 0.0567792 0.243782 
3003 296.736 468.464 -104.095 0.0104818 -7.5064 0.0953315 0.216259 
2803 304.704 457.15 -114.176 0.0257693 -5.03639 0.312605 0.560655 
2903 300.581 459.319 -105.358 0.00499064 -6.98876 0.164151 0.29162 
2902 299.008 465.27 -113.267 0.00747299 -5.16427 0.177266 0.325863 
3102 292.213 477.316 -103.189 0.00347702 -6.66834 0.0499499 0.409903 
3202 286.9 485.773 -102.969 0.0112493 -5.28696 0.0266087 0.30375 
3101 290.975 482.639 -111.553 0.0232312 -3.68882 0.00814991 0.192549 
3201 293.443 491.586 -107.829 0.00283242 -4.43635 0.00676673 0.154599 
1308 369.487 345.115 -84.1811 0.00361484 -7.10261 0.0696949 0.324038 
1408 364.667 352.088 -89.4692 0.00589547 -6.76147 0.0375701 0.37867 
1409 374.581 351.078 -90.3862 0.00296608 -3.78519 0.510284 0.503484 
1309 379.263 343.495 -85.6791 0.0279387 -1.98024 0.923729 0.465455 
1410 382.648 352.883 -84.7881 0.00920881 -5.12603 0.57476 0.563265 
1310 388.144 345.337 -81.4258 0.00745454 -5.0743 0.574298 0.491942 
1210 383.985 336.342 -80.3418 0.013679 -5.51167 0.769084 0.30683 
1503 325.777 370.787 -81.7801 0.00847588 -8.35987 0.0416754 0.166892 
1504 335.411 369.642 -84.1484 0.016234 -8.84568 0.0360587 0.229977 
1604 329.218 374.218 -90.514 0.00555786 -7.94041 0.0893005 0.146965 
1607 355.18 366.374 -99.854 0.0243503 -5.21947 0.249004 0.414835 
1406 350.165 362.477 -80.923 0.0019148 -10.5058 0.0354478 0.0970439 
1505 345.22 369.506 -86.0241 0.0254873 -9.7048 0.0215286 0.132801 
1606 347.201 370.779 -95.7509 0.00391467 -8.2653 0.0113824 0.224788 
1506 353.091 364.955 -90.1642 0.00165331 -9.29496 0.0646428 0.184464 
1608 365.117 366.661 -98.6761 0.0103668 -5.15389 0.12724 0.467823 
1407 358.389 358.369 -84.8597 0.0198205 -8.78192 0.0549003 0.211597 
1508 369.873 358.821 -94.6927 0.00686797 -5.43342 0.189598 0.44824 
1507 359.862 359.141 -94.7108 0.00457652 -5.93717 0.123206 0.409442 
1609 371.294 368.011 -90.9554 0.00242905 -5.68905 0.226847 0.38744 
1610 374.305 367.312 -81.4388 0.0148156 -6.82324 0.0707543 0.438465 
1509 377.221 360.507 -88.1727 0.00481702 -5.72414 0.425334 0.404972 
1602 311.062 379.452 -84.1073 0.0171465 -7.08712 0.043174 0.0966259 
1701 307.331 388.437 -86.3887 0.00592488 -8.32366 0.00845814 0.0207135 
1802 311.982 394.047 -93.2271 0.00980533 -8.50816 0.0505161 0.029327 
1702 316.339 385.741 -89.8097 0.000454558 -9.45582 0.0231462 0.0437799 
1601 302.162 382.233 -80.4971 0.0279004 -7.39737 0.00752792 0.00924523 
1803 320.26 390.596 -97.6253 0.000790086 -9.14205 0.0140537 0.0335078 
1603 320.084 376.78 -87.4207 0.0185505 -7.97112 0.0850752 0.127732 
1704 332.901 378.873 -98.5269 0.0224646 -8.10699 0.0786576 0.174263 
1703 325.072 382.761 -93.6713 0.0278606 -9.49923 0.0202717 0.118372 
2209 330.453 393.415 -84.0335 0.000456293 -9.62698 0.0319777 0.163161 
2109 336.763 385.847 -82.3753 0.0228078 -10.0249 0.0965063 0.212907 
1605 339.11 375.029 -91.7009 0.00233632 -9.22512 0.015521 0.189609 
1907 354.273 390.362 -99.2901 0.0154758 -6.65807 0.193593 0.372523 
2009 346.055 388.118 -85.2396 0.014776 -8.95172 0.0349305 0.210044 
2108 338.223 391.931 -90.1612 0.0140624 -10.6848 0.0169115 0.128069 
1909 353.304 381.821 -82.4715 0.0148261 -7.65717 0.0377172 0.32996 
1908 355.103 388.77 -89.4366 0.00156643 -6.68351 0.0510689 0.345416 
2008 347.536 394.236 -92.9909 0.0164816 -7.6872 0.0424476 0.316735 
1709 368.648 375.036 -84.3508 0.0234534 -6.40253 0.207023 0.327346 
1808 357.763 381.663 -95.9173 0.0142865 -4.10565 0.250917 0.483159 
1708 365.171 375.373 -93.7236 0.00912411 -6.82033 0.206493 0.270716 
1809 362.214 382.178 -87.0016 0.0228423 -6.46455 0.0927843 0.338687 
2708 292.089 411.832 -85.6543 0.00814279 -7.81493 0.362322 0.190833 
2809 283.595 413.202 -80.6364 0.00566634 -5.13651 2.07677 0.273358 
1801 302.304 395.568 -91.2795 0.00527953 -7.83449 0.00972604 0.0151782 
1901 307.29 401.943 -97.1445 0.0058843 -8.42654 0.040083 0.0342507 
2609 299.166 406.462 -81.1427 0.00219287 -8.81342 0.29553 0.0404207 
2508 308.769 408.149 -83.3869 0.0155361 -10.1661 0.0640506 0.0306301 
2608 301.71 414.142 -87.0983 0.0103298 -10.1984 0.188038 0.123549 
2409 315.689 401.654 -80.272 0.00870994 -10.1161 0.0597523 0.0395876 
2306 328.686 414.408 -99.4196 0.000782173 -8.32668 0.0570962 0.114204 
2208 331.674 399.253 -92.0445 0.010642 -9.69815 0.0342335 0.0897016 
2308 323.65 400.41 -86.2032 0.0168203 -9.51575 0.0191235 0.0580156 
2307 326.598 407.856 -92.1817 0.031457 -8.83064 0.0666995 0.0802554 
2408 318.062 408.651 -87.0161 0.00827097 -9.70643 0.0188098 0.035259 
2207 335.018 406.895 -97.5378 0.0103649 -8.28362 0.0690822 0.188389 
2107 339.71 398.078 -97.8967 0.00521022 -9.21017 0.0188007 0.376862 
3008 274.63 431.219 -82.1679 0.00128733 4.77376 2.55287 0.573224 
2808 288.027 420.978 -85.1321 0.00225737 -8.42331 0.302524 0.321073 
2908 278.68 421.984 -81.8447 0.0077639 -2.51057 1.92186 0.35235 
2907 282.83 429.253 -87.4543 0.00920782 -5.4071 1.35554 0.30467 
2807 292.395 428.377 -90.2145 0.00240401 -7.86905 0.0674653 0.404791 
2707 294.601 418.829 -92.3261 0.00457453 -7.49871 0.146253 0.370821 
2806 293.244 435.202 -97.4568 0.00656997 -7.18393 0.0302768 0.346347 
2507 311.283 415.488 -89.7139 0.014398 -10.2921 0.0992367 0.0292217 
2706 297.032 426.04 -98.7606 0.00232432 -7.70999 0.150696 0.320541 
2607 304.196 421.383 -93.5553 0.011161 -8.23682 0.0351148 0.194398 
2506 313.689 422.505 -96.4715 0.017222 -8.72528 0.17606 0.0448753 
2407 320.274 415.361 -94.0887 0.0320931 -8.87305 0.00366305 0.0319816 
3107 271.293 440.563 -81.6869 0.0242355 -3.42369 2.18977 0.571024 
3106 274.308 447.686 -87.993 0.0160665 4.03053 4.70968 0.360215 
2906 288.331 437.448 -89.04 0.0151388 -9.87438 0.0178047 0.284251 
3007 278.41 438.323 -88.2437 0.00116752 -2.82868 3.88304 0.247411 
3005 288.468 453.445 -95.6313 0.0115503 -8.19094 0.0828797 0.328364 
3105 279.762 455.408 -91.1839 0.00397676 -7.99067 0.114263 0.160775 
3006 284.003 446.403 -90.1104 0.032524 -9.24303 0.011352 0.226859 
2905 292.955 444.641 -94.203 0.00584015 -7.81835 0.0539194 0.270709 
3311 303.453 435.992 -80.3772 0.00564377 -2.11136 1.69853 0.501539 
2904 297.515 451.783 -99.5414 0.00815143 -8.73646 0.0296319 0.254944 
3411 301.312 445.552 -82.891 0.0118857 -6.79538 1.35762 0.386454 
3511 308.586 451.549 -86.2043 0.00643169 -7.27332 0.598659 0.534519 
3412 310.765 442.335 -82.9167 0.0173796 -7.18624 0.0592821 0.528595 
3510 299.711 455.482 -83.8641 0.00336086 -9.86978 1.31988 0.419166 
3206 271.408 457.278 -86.0497 0.00446525 -3.76472 2.92093 0.24222 
3305 269.14 466.793 -83.6147 0.0198561 -6.13691 0.610988 0.30753 
3405 267.025 476.285 -81.0618 0.0123652 -5.98298 0.35294 0.363323 
3304 276.04 473.97 -84.7113 0.0128191 -9.61182 0.0218205 0.224331 
3103 289.19 469.587 -97.6371 0.00456898 -8.66771 0.0300932 0.335938 
3104 287.011 462.279 -91.1739 0.0417862 -8.91133 0.0402562 0.283245 
3205 277.877 464.671 -87.9231 0.0177036 -9.06933 0.0813567 0.187508 
3204 284.84 471.763 -88.9083 0.0191339 -9.85363 0.0311154 0.267499 
3004 294.505 461.131 -97.6728 0.00452147 -8.07481 0.124843 0.246209 
3612 313.911 459.101 -82.4816 0.00908725 -5.42229 0.850465 0.539449 
3611 306.387 461.013 -88.8828 0.00723708 -3.46062 2.60048 0.586087 
3710 304.454 470.88 -90.5457 0.0193589 -5.22859 3.88832 0.4099 
3610 298.79 465.545 -84.2714 0.0156314 -4.1435 0.950499 0.440406 
3709 298.027 475.577 -84.5011 0.0283943 -9.39768 0.546978 0.344945 
3711 313.338 467.892 -87.0515 0.00551293 -4.64604 1.29921 0.579917 
3812 316.224 474.762 -80.4842 0.00551242 -5.90052 0.950937 0.370905 
3404 273.748 483.503 -82.7163 0.0149618 -9.57828 0.0704 0.166314 
3503 271.572 493.011 -80.5505 0.00862313 -9.04711 0.023081 0.201733 
3301 288.419 495.179 -99.9647 0.0273773 -6.33209 0.0224234 0.0579475 
3203 285.254 478.65 -96.1418 0.0105859 -8.43921 0.0184666 0.266713 
3302 285.579 488.236 -93.3587 0.0204251 -8.71158 0.0559369 0.20019 
3303 282.534 481.265 -86.875 0.00512056 -10.899 0.0703675 0.189965 
3403 279.954 490.849 -85.5309 0.0356907 -10.9144 0.0796579 0.0876999 
3908 296.906 495.706 -84.4401 0.00809017 -9.76369 0.749825 0.13983 
3809 297.319 485.625 -84.6141 0.00376369 -9.39549 0.76403 0.222307 
3811 311.76 477.517 -89.0041 0.0080883 -5.66381 0.254701 0.433085 
3810 302.697 480.88 -91.5683 0.0135099 -4.81675 4.34469 0.427598 
3909 301.233 490.977 -92.097 0.0263131 -3.07875 5.61221 0.394404 
3910 310.428 487.179 -91.0561 0.0159669 -5.59721 0.364204 0.431106 
4011 313.963 494.046 -84.7784 0.0286994 -5.50163 0.731789 0.393696 
3911 314.186 484.389 -82.1645 0.00647337 -7.07159 0.450564 0.337021 
4010 309.22 496.854 -93.2177 0.0294207 -4.73745 1.5826 0.395206 
1009 374.712 327.915 -65.1697 0.00788204 -8.40327 0.0714445 0.0909472 
910 387.825 317.01 -62.5707 0.00282204 -8.12768 0.0911758 0.043522 
1010 383.298 323.857 -68.2864 0.028562 -8.13791 0.0935665 0.0934028 
1110 388.617 329.456 -74.6703 0.00744355 -6.71068 0.247936 0.216196 
1109 378.77 330.845 -73.808 0.0029875 -7.58916 0.159223 0.158043 
1011 393.199 322.793 -68.7409 0.0239346 -7.72167 0.134122 0.17118 
909 378.536 319.988 -60.3987 0.0181172 -8.81883 0.0703875 0.0473527 
911 397.784 316.27 -62.7053 0.037911 -8.13052 0.0349976 0.143315 
1111 398.111 330.923 -71.8601 0.0084782 -5.25386 0.0458292 0.410972 
1012 402.937 323.817 -66.7598 0.00262334 -5.88502 0.0747881 0.383312 
912 407.703 316.768 -61.5437 0.0103062 -6.09005 0.0958527 0.369051 
1112 403.069 333.24 -63.4628 0.0208959 -4.98672 0.501614 0.524117 
1104 334.636 347.244 -60.4707 0.00331541 -8.61203 0.037827 0.0340658 
1105 343.683 344.009 -63.2733 0.00274723 -8.51432 0.0773372 0.025747 
1206 349.219 349.545 -69.4712 0.0263407 -9.36482 0.0392788 0.0620636 
1205 339.774 352.188 -67.5008 0.000894861 -8.60145 0.0482028 0.0297393 
1106 353.029 341.171 -65.5556 0.0019179 -8.35151 0.0819066 0.0435219 
1306 353.587 353.742 -77.4096 0.00831912 -8.76081 0.0347173 0.107823 
1008 367.819 333.569 -60.6897 0.00781058 -10.0443 0.0527532 0.0777198 
1307 363.006 351.221 -79.6418 0.00509096 -9.88261 0.0319242 0.220796 
1207 357.895 345.941 -72.8761 0.0181136 -8.74788 0.0345997 0.110911 
1209 374.249 338.1 -78.9182 0.00891522 -7.38661 0.145776 0.236421 
1108 371.951 336.617 -69.2867 0.018856 -10.124 0.0570363 0.148789 
1107 362.904 339.944 -66.6149 0.00858438 -9.50567 0.0533859 0.0995413 
1208 367.61 344.051 -74.4039 0.0017214 -10.3291 0.0513133 0.169504 
1512 377.159 353.264 -60.1121 0.00906442 -7.03817 0.110179 0.252622 
1211 393.193 338.098 -76.7838 0.00578033 -1.81851 0.304129 0.527006 
1312 388.041 341.09 -64.8184 0.0053105 -5.32515 0.184254 0.576243 
1311 391.537 346.882 -72.1681 0.00223099 -5.28467 0.541503 0.625911 
1411 382.881 350.931 -74.9832 0.00362286 -5.09131 0.209726 0.520915 
1412 385.321 350.674 -65.2984 0.0163981 -7.01096 0.0637038 0.337942 
1212 397.474 340.108 -67.9598 0.011395 -5.16268 0.505587 0.570684 
1502 316.177 372.247 -79.4183 0.0154557 -7.38341 0.0652049 0.155857 
1401 303.541 371.718 -67.7713 0.00676176 -6.90887 0.00466521 0.00844554 
1402 313.315 371.9 -69.874 0.0318392 -8.01655 0.184453 0.10667 
1501 306.628 373.977 -77.0165 0.00126123 -5.80908 0.0106504 0.0790609 
1301 310.268 369.882 -60.6134 0.0050969 -7.61459 0.187001 0.083461 
1204 330.949 355.696 -64.3037 0.00415886 -8.74887 0.133109 0.0246922 
1303 328.497 365.167 -66.474 0.0265361 -10.8166 0.0559795 0.198013 
1302 319.943 368.997 -62.9619 0.00741092 -11.0635 0.0248514 0.18891 
1403 323.03 371.27 -72.1925 0.0091002 -9.99522 0.0269799 0.205995 
1404 332.58 369.446 -74.5567 0.00448176 -10.8759 0.0585427 0.227662 
1304 336.162 360.767 -71.137 0.00174896 -9.36239 0.043476 0.151189 
1203 322.742 359.754 -60.3326 0.00330373 -8.92119 0.0817217 0.15489 
1305 345.511 357.989 -73.306 0.0114545 -10.0422 0.0307896 0.0390103 
1405 341.783 366.439 -77.144 0.00935227 -10.8041 0.0405881 0.185092 
1911 350.326 373.343 -65.4263 0.00707001 -8.31877 0.0327913 0.136115 
1812 356.012 365.405 -63.2662 0.0100521 -8.92513 0.0424254 0.119903 
2012 341.067 373.956 -61.6757 0.00762407 -9.32979 0.0342214 0.174063 
1912 346.455 365.641 -60.376 0.00327083 -9.876 0.0775779 0.119951 
1712 360.415 356.455 -62.531 0.00446729 -9.68987 0.276728 0.146971 
1612 369.83 356.915 -65.8265 0.00595764 -8.69264 0.0676702 0.273336 
1711 362.746 362.548 -70.0572 0.00359122 -9.2346 0.313186 0.196963 
1710 365.199 368.607 -77.5548 0.0223157 -7.79165 0.258495 0.434707 
1811 358.689 371.659 -70.6109 0.00179212 -8.42328 0.0439729 0.178679 
1611 372.374 364.292 -72.0832 0.00844517 -7.23656 0.08511 0.465102 
1510 376.987 358.171 -78.4683 0.00552344 -6.45117 0.155724 0.501999 
1511 379.32 357.886 -68.7457 0.0074422 -6.73683 0.109313 0.365487 
2611 294.382 392.578 -67.4892 0.00770906 -4.56907 3.57507 0.201148 
2511 301.57 386.63 -63.7835 0.0118435 -8.71928 0.864103 0.202114 
2510 303.887 393.893 -70.2668 0.0323071 -10.7424 0.094312 0.134116 
2411 310.429 386.599 -68.2782 0.00159319 -10.1034 0.472332 0.208953 
2410 313.204 394.364 -73.9246 0.00190956 -10.0794 0.117068 0.130098 
2309 322.089 394.15 -78.5744 0.000913443 -9.45814 0.0866697 0.13449 
2210 327.996 386.121 -77.6392 0.00381535 -11.1411 0.15173 0.219009 
2311 318.783 385.069 -63.0113 0.00773758 -10.4968 0.0303987 0.133338 
2310 319.23 386.431 -72.9116 0.0180114 -10.9217 0.29822 0.223467 
2211 327.612 384.865 -67.7272 0.00228864 -9.14004 0.0392738 0.148957 
2111 335.908 382.449 -62.7101 0.00135286 -7.47285 0.0717015 0.171008 
2110 336.381 384.337 -72.5028 0.00650417 -8.78821 0.0310832 0.236264 
1910 353.013 379.599 -72.7397 0.00265372 -7.50295 0.0949904 0.197131 
2010 344.571 381.809 -77.6324 0.00498083 -9.42501 0.0359685 0.206464 
2011 344.525 381.177 -67.6545 0.0213421 -7.35394 0.0475296 0.198963 
1810 361.315 377.793 -78.0688 0.017645 -7.31722 0.173898 0.220823 
2711 287.778 396.114 -60.9954 0.0235312 -0.806674 3.5501 0.688467 
2709 289.594 405.409 -78.3381 0.0278945 -3.70399 1.60796 0.146233 
2710 287.402 399.271 -70.5972 0.00503864 12.1592 5.28042 0.340976 
2810 281.8 407.598 -72.4813 0.00815032 7.63737 3.30934 0.556015 
2811 283.651 404.819 -63.075 0.00773547 -2.45357 2.65116 0.811158 
2910 283.569 414.477 -65.2588 0.00353828 -1.21141 4.54043 0.714409 
2911 292.104 409.487 -65.6556 0.00559427 24.2719 5.72022 0.715268 
2610 296.679 399.46 -74.4282 0.0155142 -8.15689 0.445089 0.0838215 
2509 306.321 401.05 -76.77 0.00457962 -11.0674 0.242893 0.0185341 
3012 300.242 413.871 -68.9646 0.00334407 -6.54766 3.86874 0.505523 
3013 308.836 412.691 -64.1019 0.0152285 -8.76404 0.445714 0.375819 
2912 300.393 408.921 -60.2167 0.00549653 -8.13401 1.42559 0.282723 
3014 317.667 409.088 -61.196 0.00670509 0.916137 4.51896 0.431974 
3009 275.653 426.509 -73.4647 0.0217633 -3.00323 2.45103 0.716106 
2909 278.144 416.907 -73.2034 0.000577855 -4.03146 1.63931 0.575793 
3011 292.379 419.402 -66.03 0.0161241 -7.29324 1.41783 0.395893 
3109 283.92 432.315 -73.5703 0.01413 2.88827 1.11943 0.783399 
3010 283.786 423.81 -68.4725 0.00775205 -3.41338 2.57364 0.60383 
3110 292.418 427.257 -72.1985 0.0261648 -8.21893 0.058097 0.733043 
3312 313.121 433.547 -78.7594 0.00687978 -5.0798 1.71602 0.560492 
3112 308.401 418.22 -72.4846 0.00756246 -9.10292 1.37251 0.454018 
3212 305.979 427.003 -76.589 0.00866762 -8.12353 1.07294 0.6003 
3211 300.341 433.313 -71.2585 0.00606528 -9.23559 0.210897 0.706129 
3111 301.044 423.769 -68.52 0.0201548 -8.12033 0.435111 0.695887 
3314 312.033 431.503 -62.3959 0.0213453 -3.8073 0.145824 0.632546 
3213 315.444 425.115 -73.6636 0.00400066 0.697963 4.53503 0.546123 
3113 317.122 416.839 -67.8514 0.0160667 -1.75825 5.59716 0.38509 
3214 319.965 425.914 -64.7825 0.00741331 -5.548 0.565433 0.526435 
3313 317.976 434.111 -70.0327 0.00602901 -5.68229 0.555334 0.635714 
3207 269.151 449.995 -79.6915 0.00994506 -3.88263 1.86753 0.497171 
3108 274.8 436.357 -73.4178 0.0210428 -3.22459 2.69194 0.747012 
3307 272.617 453.37 -70.9887 0.0135991 -4.93791 0.902162 0.690476 
3210 291.329 436.367 -68.2356 0.006491 -7.61039 0.195027 0.665362 
3208 277.225 445.782 -75.4873 0.0293635 1.15532 0.47852 0.937103 
3209 282.345 440.764 -68.5085 0.00244403 -6.72071 0.0870154 0.584435 
3308 281.831 450.727 -68.0982 0.0173891 -6.48377 0.0903616 0.555209 
3309 290.677 446.244 -69.3004 0.0055486 -7.74275 0.226949 0.458802 
3310 295.838 440.849 -75.9895 0.00274698 -9.34261 0.251774 0.487148 
3409 289.744 455.976 -71.2479 0.0002578 -8.88855 0.0690369 0.308555 
3410 297.157 450.729 -75.4418 0.00913547 -11.5388 0.106986 0.307654 
3512 314.006 450.299 -77.8378 0.0307163 -5.88441 0.710536 0.413024 
3514 307.454 447.167 -60.9664 0.00353522 -6.95137 0.197449 0.411807 
3413 312.355 441.733 -73.0629 0.00225481 1.28078 0.530478 0.715064 
3513 314.226 449.964 -67.7884 0.0111133 -7.05482 0.416256 0.379322 
3414 314.928 440.997 -63.4299 0.010258 -6.96869 0.0433361 0.504255 
5738 455.389 445.24 -60.5359 0.0335957 -4.02752 1.73591 0.807356 
5839 457.683 454.853 -60.3021 0.0362779 -3.99893 1.77652 0.673529 
5739 463.86 448.402 -64.8488 0.0254485 -1.98547 0.101539 0.54935 
5639 462.749 438.756 -62.4022 0.0379042 -5.45598 0.038791 0.531746 
5740 472.523 453.047 -62.9374 0.0106085 -5.57716 0.993179 0.300445 
3306 267.416 459.433 -77.0906 0.0354478 -2.56769 0.510101 0.520095 
3406 265.994 468.945 -74.3592 0.00568784 -5.2748 0.041045 0.493026 
3506 271.99 472.84 -67.3927 0.00924556 -4.16998 2.02783 0.376888 
3407 272.306 463.121 -69.2136 0.0272967 -4.60663 1.31058 0.539806 
3408 280.486 459.127 -73.3003 0.00249765 -4.86885 0.127434 0.590024 
3508 288.332 464.932 -75.4506 0.00331254 -8.02454 0.0659608 0.383439 
3608 287.694 474.765 -73.9179 0.00564226 -9.07249 0.109359 0.227109 
3507 280.548 468.688 -70.4241 0.0222646 -8.61723 0.0741414 0.251911 
3609 296.553 470.618 -75.9491 0.019224 -9.44137 0.145069 0.432392 
3614 307.309 456.472 -64.7086 0.0166887 -8.2095 0.250169 0.382163 
3613 313.206 458.685 -72.5038 0.0126319 -8.0059 0.238924 0.396876 
3712 310.737 467.056 -77.3558 0.00534909 -3.03974 0.636737 0.527269 
3509 297.375 460.695 -75.6498 0.00870306 -9.71908 0.163402 0.419441 
3713 308.531 466.002 -67.6101 0.0075335 -7.35914 0.364737 0.312798 
3813 313.653 473.985 -70.8201 0.01022 -7.23984 0.16007 0.335989 
3814 314.689 470.805 -61.3944 0.0145232 -6.46216 0.0812996 0.23197 
5941 474.679 472.039 -69.1718 0.0121119 -4.44881 0.329453 0.558073 
5940 465.672 468.086 -67.5188 0.00324613 -4.54962 1.21647 0.513225 
5841 473.838 462.457 -66.2901 0.0127245 -5.48506 0.559328 0.383663 
5840 464.756 458.237 -66.4594 0.0268856 -4.1555 0.402768 0.563711 
5939 459.946 464.487 -60.2307 0.00209991 -5.33281 1.28501 0.513767 
5842 479.656 468.819 -61.156 0.0271274 -7.44151 0.272686 0.329754 
3504 265.02 485.772 -78.3956 0.0293076 -5.92335 0.207707 0.404751 
3505 264.835 478.482 -71.5488 0.0308842 -5.26587 0.159793 0.480872 
3604 263.136 495.228 -75.6612 0.00318773 -6.11928 0.128776 0.371155 
3605 263.972 488.085 -68.7207 0.025334 -4.59621 0.373035 0.505611 
3606 271.588 482.491 -65.3784 0.00344191 -3.39334 2.86357 0.366973 
3705 271.334 492.114 -63.2962 0.018161 -2.78917 3.50549 0.40124 
3607 280.181 478.479 -68.5006 0.00622492 -8.51194 0.102307 0.136842 
3808 293.896 490.388 -76.5204 0.00153347 -9.43087 0.0524453 0.121448 
3707 287.742 484.419 -71.347 0.0175529 -8.56624 0.185816 0.136472 
3807 286.851 494.319 -70.6521 0.00331407 -8.59448 0.229416 0.086694 
3706 279.09 488.411 -68.3776 0.00674616 -8.65013 0.0724143 0.21374 
3708 295.557 480.54 -76.1943 0.0210748 -9.49227 0.0960153 0.251098 
4113 312.636 495.368 -62.4737 0.012387 -6.42207 0.990012 0.360202 
4012 319.921 490.937 -77.3061 0.00472736 -4.89836 1.05532 0.342214 
3913 318.694 479.552 -64.2166 0.00859656 -5.30505 0.503002 0.217247 
3912 319.347 481.574 -73.9956 0.0364027 -4.71965 1.10567 0.311155 
4013 318.527 489.061 -67.4997 0.0135975 -5.23106 0.879212 0.31589 
6042 475.042 481.759 -71.4043 0.0243386 -5.51867 0.338155 0.552611 
6142 474.965 491.675 -72.278 0.0160427 -5.10023 1.46235 0.639942 
6041 466.754 477.937 -67.4117 0.0184872 -5.39183 0.876651 0.520318 
6141 469.383 487.279 -65.222 0.0120043 -3.83422 0.369671 0.719536 
6242 466.738 496.257 -68.6491 0.00885422 -3.9603 1.51195 0.773074 
6241 462.464 492.687 -60.3771 0.000862921 -5.48446 0.337524 0.500116 
6043 483.09 487.001 -68.6811 0.00268233 -6.66493 0.345269 0.570217 
5942 481.551 477.928 -64.8561 0.0149674 -7.50617 0.378209 0.395663 
6044 487.581 493.794 -62.8811 0.0115166 18.9438 3.90612 0.956196 
6143 483.814 496.432 -71.7662 0.0127321 57.1851 59.2564 0.916147 
710 387.265 305.566 -49.537 0.00871855 -7.4084 0.268936 0.0342399 
811 392.419 310.444 -56.5777 0.0544 -8.25192 0.106072 0.0322653 
709 378.664 309.704 -46.5062 0.0635529 -9.30359 0.0706922 0.0326321 
611 391.981 299.182 -43.3952 0.00280167 -8.40735 0.196539 0.0255072 
610 382.627 302.078 -41.3922 0.011034 -8.22854 0.0173044 0.0290468 
810 382.701 312.476 -55.2363 0.00612072 -6.55303 0.358159 0.039242 
711 397.088 303.889 -50.5855 0.00599156 -7.87299 0.130191 0.0182472 
712 407.086 303.271 -50.7693 0.0109385 -8.48029 0.0924334 0.137256 
812 402.398 310.021 -56.4313 0.0221952 -8.60902 0.052131 0.140097 
813 412.392 309.746 -56.2372 0.00145902 -6.01863 0.147586 0.365809 
613 411.933 298.214 -43.6312 0.0112813 -9.026 0.0173663 0.186715 
612 401.932 298.286 -43.8389 0.0126409 -8.72654 0.0882284 0.0357906 
713 417.075 302.751 -50.9065 0.027119 -5.80378 0.165672 0.399709 
614 421.516 295.842 -45.2546 0.0187153 -5.95374 0.112522 0.405092 
714 424.635 305.334 -44.8657 0.0263763 -4.9298 0.108989 0.485285 
814 419.368 312.379 -49.5769 0.00835871 -5.60443 0.0931138 0.433645 
615 429.749 298.226 -40.0906 0.0105816 -5.1691 0.0996812 0.494582 
906 353.569 331.775 -51.0447 0.00309085 -8.97795 0.042165 0.0970336 
806 348.923 327.636 -43.237 0.0164223 -8.33624 0.0285137 0.167694 
905 343.728 333.097 -49.8214 0.0167752 -8.13442 0.0266146 0.0956795 
805 341.175 333.161 -40.1607 0.0352896 -8.36177 0.0644363 0.219918 
708 369.868 313.529 -43.6075 0.0117636 -8.53662 0.0457837 0.0163929 
808 366.216 321.522 -48.3724 0.0192111 -9.00206 0.058812 0.0595052 
908 371.141 325.25 -56.2244 0.0160563 -9.69047 0.0587749 0.0597786 
907 363.35 330.219 -52.4063 0.00866942 -10.5244 0.00848161 0.0908973 
807 358.845 326.826 -44.149 0.00738576 -10.8625 0.0286666 0.118036 
809 374.058 316.56 -52.1644 0.0128242 -7.76786 0.20409 0.0243738 
1415 375.278 333.134 -43.3117 0.0120045 -9.73136 0.0943666 0.154394 
707 361.773 318.201 -40.0534 0.00812767 -8.89435 0.0693184 0.0757164 
1215 388.255 322.27 -46.9908 0.00634475 -9.39493 0.309153 0.336261 
1214 391.588 328.608 -53.9389 0.00793708 -10.7723 0.0869302 0.256069 
1314 383.653 331.024 -48.3568 0.00874144 -9.98315 0.0272316 0.28131 
1315 380.011 324.492 -41.7213 0.0125539 -9.77144 0.165875 0.187171 
1115 394.678 315.855 -42.7111 0.00423423 -9.49748 0.178884 0.288405 
1114 398.054 322.994 -48.8151 0.030711 -9.63852 0.0704782 0.319378 
1013 408.6 326.35 -58.8916 0.0188788 -4.95435 0.252087 0.513669 
1014 407.797 325.171 -48.9886 0.0112669 -6.39491 0.0212116 0.384731 
1113 401.294 330.981 -53.8747 0.00839272 -6.80432 0.0116383 0.398185 
914 414.011 318.94 -44.2525 0.00662318 -6.32526 0.0428425 0.341922 
1015 404.236 318.698 -42.2434 0.00355491 -9.25206 0.0506058 0.203777 
913 414.034 319.39 -54.2504 0.0143072 -5.34027 0.109242 0.470653 
1002 313.652 350.841 -44.9191 0.0067611 -5.54129 0.0272103 0.314876 
1004 329.513 342.219 -53.5142 0.00850041 -7.03207 0.0399736 0.274272 
903 329.842 344.863 -43.8913 0.0483387 -7.33265 0.126628 0.378419 
1003 321.583 346.548 -49.2422 0.00633962 -6.97568 0.0634271 0.327652 
1103 325.769 350.681 -57.3467 0.00273919 -6.90488 0.11123 0.135918 
904 334.866 336.817 -47.004 0.00123416 -7.63747 0.0851909 0.23989 
1006 348.391 337.187 -57.665 0.003809 -8.72161 0.0531557 0.0273184 
1005 338.894 339.553 -55.7214 0.0144804 -8.21688 0.0534585 0.135504 
1815 346.735 346.64 -42.4767 0.00516152 -10.9921 0.400351 0.337125 
1814 348.917 351.245 -51.0813 0.0120125 -10.352 0.0570997 0.223107 
1714 355.848 345.692 -46.4565 0.020441 -10.5655 0.0689276 0.101511 
1914 340.406 353.292 -46.2787 0.0042147 -9.06473 0.521954 0.467713 
1007 358.075 335.27 -59.237 0.00478891 -9.29396 0.053117 0.0518727 
1514 372.654 342.774 -43.6511 0.000724662 -7.09258 0.0771887 0.290075 
1614 365.356 346.241 -49.5198 0.0027381 -9.10801 0.0336758 0.17533 
1713 358.098 350.48 -54.9148 0.0186064 -10.3561 0.222051 0.0999788 
1613 367.602 351.294 -57.8685 0.00514354 -9.48269 0.037643 0.130144 
1513 374.897 348.274 -51.7215 0.0127777 -6.94668 0.0532629 0.258796 
1615 363.223 342.867 -40.3487 0.00314675 -9.02106 0.0655711 0.162623 
1414 377.967 338.774 -51.0896 0.014697 -8.66226 0.127621 0.238794 
1313 385.02 335.35 -57.2562 0.00679798 -10.7462 0.171325 0.270292 
1413 382.129 344.923 -57.7596 0.00444874 -8.10759 0.0819233 0.276963 
1213 394.8 336.629 -58.9624 0.0069836 -6.96339 0.0184515 0.493216 
1101 312.849 360.712 -46.2325 0.0186833 -7.93052 0.0278877 0.258664 
1201 306.57 364.893 -52.7937 0.00889857 -6.93911 0.0308067 0.126786 
1202 316.432 364.913 -54.5502 0.0267588 -9.73414 0.0928671 0.238708 
1102 318.107 355.22 -52.7445 0.00881134 -7.25411 0.105114 0.295946 
2114 327.831 362.249 -42.6825 0.016811 -10.2666 0.753413 0.440075 
2113 329.937 368.996 -49.7716 0.0113902 -8.8548 0.0503782 0.333302 
2214 324.405 371.591 -41.8583 0.00370898 -8.8226 0.0517249 0.341113 
2014 334.021 359.897 -50.084 0.0166978 -9.81739 0.781367 0.456317 