11600
Atoms. Timestep     0
    1    2.0000    0.0027    0.0024    0.0003   -6.3901
    2    2.0000    0.0543    0.0154    0.0388   -6.0942
    3    2.0000    0.0895    0.0632    0.0263   -8.3582
    4    2.0000    0.1460    0.1187    0.0273   -7.4649
    5    2.0000    0.0791    0.0526    0.0265   -7.8537
    6    2.0000    0.1541    0.0114    0.1427   -7.1228
    7    3.0000    0.3270    0.0133    0.3137   -4.8728
    8    3.0000    0.3865    0.0177    0.3688   -2.9105
    9    3.0000    0.2204    0.0229    0.1975   -3.2236
   10    3.0000    0.1076    0.0127    0.0949   -3.4340
   11    3.0000    0.1046    0.0134    0.0912   -3.2750
   12    3.0000    0.0354    0.0031    0.0323   -3.2095
   13    3.0000    0.0897    0.0037    0.0860   -3.1491
   14    3.0000    0.2085    0.0031    0.2053   -3.3115
   15    3.0000    0.1792    0.0075    0.1717   -4.0578
   16    3.0000    0.1919    0.0068    0.1851   -3.6817
   17    3.0000    0.2319    0.0048    0.2270   -4.2686
   18    2.0000    0.1904    0.0108    0.1797   -6.3000
   19    2.0000    0.0597    0.0147    0.0451   -6.4716
   20    2.0000    0.0435    0.0099    0.0336   -6.0193
   21    3.0000    0.0910    0.0242    0.0668   -5.5083
   22    3.0000    0.1295    0.0073    0.1222   -4.1524
   23    3.0000    0.0736    0.0179    0.0557   -3.7228
   24    3.0000    0.1177    0.0065    0.1112   -3.2266
   25    3.0000    0.1264    0.0057    0.1207   -3.4776
   26    3.0000    0.2412    0.1226    0.1186   -3.0712
   27    3.0000    0.4122    0.3560    0.0562   -3.4721
   28    3.0000    0.8579    0.8172    0.0407   -3.9665
   29    3.0000    0.9648    0.8573    0.1074   -4.2701
   30    3.0000    0.9094    0.7326    0.1768   -2.8782
   31    3.0000    0.9884    0.7389    0.2495    0.3142
   32    3.0000    0.7746    0.5620    0.2126   -2.7276
   33    3.0000    0.3704    0.2455    0.1249   -4.6773
   34    3.0000    0.2935    0.1256    0.1679   -3.8167
   35    3.0000    0.1893    0.0399    0.1495   -3.6744
   36    3.0000    0.1940    0.0403    0.1536   -3.8032
   37    3.0000    0.1504    0.0766    0.0738   -4.9422
   38    3.0000    0.1087    0.0789    0.0297   -5.8289
   39    2.0000    0.0590    0.0299    0.0291   -6.3256
   40    2.0000    0.0844    0.0620    0.0225   -7.4961
   41    2.0000    0.1410    0.0605    0.0805   -7.9718
   42    2.0000    0.2195    0.0064    0.2130   -6.4177
   43    3.0000    0.3041    0.0064    0.2977   -4.3450
   44    3.0000    0.4804    0.2144    0.2660   -3.2080
   45    3.0000    0.5289    0.2640    0.2648   -5.9110
   46    2.0000    0.3190    0.1081    0.2109   -6.3450
   47    1.0000    0.5989    0.3520    0.2468  -10.5298
   48    3.0000    0.5221    0.2253    0.2968   -1.7993
   49    1.0000    0.2844    0.0263    0.2581  -11.6960
   50    2.0000    0.3450    0.0080    0.3371   -7.7597
   51    3.0000    0.2708    0.0603    0.2105   -4.7129
   52    3.0000    0.2560    0.0422    0.2138   -2.2397
   53    3.0000    0.3413    0.0859    0.2554   -3.1972
   54    3.0000    0.1613    0.0342    0.1270   -2.9489
   55    3.0000    0.0697    0.0067    0.0629   -4.8314
   56    3.0000    0.0816    0.0369    0.0447   -5.5322
   57    3.0000    0.0742    0.0449    0.0293   -5.7596
   58    3.0000    0.0956    0.0092    0.0865   -5.7555
   59    3.0000    0.1605    0.0285    0.1319   -5.5455
   60    3.0000    0.1674    0.0550    0.1124   -5.8740
   61    2.0000    0.1372    0.0773    0.0599   -7.1749
   62    2.0000    0.2284    0.2075    0.0210   -8.0039
   63    2.0000    0.4319    0.3887    0.0432   -7.9043
   64    2.0000    0.6511    0.5989    0.0522   -8.0763
   65    2.0000    0.7525    0.7248    0.0277   -8.7521
   66    1.0000    0.7094    0.6303    0.0791   -9.4438
   67    1.0000    0.5388    0.3078    0.2310   -9.6911
   68    3.0000    0.6048    0.2472    0.3576   -4.3559
   69    3.0000    0.6017    0.2806    0.3211   -3.5159
   70    3.0000    1.3828    1.1444    0.2385   -4.9090
   71    3.0000    1.0796    0.9029    0.1767   -3.9901
   72    3.0000    1.1509    0.9596    0.1913   -3.6523
   73    3.0000    0.1906    0.0088    0.1818   -5.0297
   74    2.0000    0.1572    0.0085    0.1487   -7.5450
   75    2.0000    0.0750    0.0074    0.0676   -6.0830
   76    2.0000    0.0333    0.0105    0.0229   -6.1067
   77    3.0000    0.0330    0.0083    0.0247   -5.4954
   78    2.0000    0.0807    0.0202    0.0605   -6.1407
   79    3.0000    0.0801    0.0368    0.0433   -5.3335
   80    3.0000    0.1395    0.0410    0.0984   -5.6741
   81    3.0000    0.2163    0.0104    0.2059   -4.0634
   82    3.0000    0.3228    0.0094    0.3134   -2.8296
   83    3.0000    0.2503    0.0029    0.2473   -3.5367
   84    3.0000    0.1882    0.0139    0.1744   -3.5350
   85    3.0000    0.3349    0.0125    0.3225   -3.6039
   86    3.0000    0.2503    0.0017    0.2486   -5.2384
   87    2.0000    0.1175    0.0059    0.1117   -7.4279
   88    2.0000    0.0122    0.0073    0.0048   -7.0964
   89    2.0000    0.0686    0.0579    0.0107   -6.3456
   90    2.0000    0.0916    0.0705    0.0211   -7.0890
   91    2.0000    0.0977    0.0942    0.0035   -6.7343
   92    2.0000    0.1075    0.1041    0.0034   -6.6631
   93    2.0000    0.0639    0.0616    0.0024   -6.8518
   94    2.0000    0.0308    0.0268    0.0041   -6.8083
   95    2.0000    0.0209    0.0184    0.0024   -6.8781
   96    2.0000    0.0058    0.0013    0.0045   -6.9326
   97    2.0000    0.0157    0.0119    0.0038   -7.1407
   98    2.0000    0.0077    0.0056    0.0021   -7.7809
   99    2.0000    0.0261    0.0230    0.0031   -7.6879
  100    3.0000    0.0135    0.0107    0.0028   -4.9265
  101    2.0000    0.0636    0.0180    0.0456   -7.1950
  102    2.0000    0.1076    0.0268    0.0808   -8.2967
  103    1.0000    0.1195    0.0323    0.0871   -9.0536
  104    2.0000    0.3202    0.0568    0.2634   -7.6422
  105    2.0000    0.4641    0.0549    0.4092   -6.0712
  106    3.0000    0.5796    0.0588    0.5207   -5.3108
  107    3.0000    0.5697    0.0447    0.5250   -4.7156
  108    3.0000    0.5763    0.0564    0.5200   -3.9878
  109    3.0000    0.4152    0.0543    0.3609   -4.3588
  110    3.0000    0.3143    0.0281    0.2862   -4.9363
  111    3.0000    0.2782    0.0168    0.2614   -4.3586
  112    3.0000    0.1926    0.0010    0.1916   -4.7785
  113    3.0000    0.3041    0.0024    0.3017   -5.0691
  114    3.0000    0.4800    0.0291    0.4509   -4.5778
  115    3.0000    0.4356    0.0127    0.4229   -4.5560
  116    2.0000    0.4854    0.0517    0.4338   -6.6384
  117    2.0000    0.3712    0.0645    0.3067   -6.2209
  118    2.0000    0.3507    0.1777    0.1730   -6.4994
  119    2.0000    0.2773    0.1709    0.1064   -6.7279
  120    2.0000    0.2144    0.0826    0.1319   -6.9849
  121    2.0000    0.2758    0.0649    0.2109   -6.9085
  122    2.0000    0.3218    0.0996    0.2222   -6.7499
  123    3.0000    0.2709    0.0202    0.2506   -5.0342
  124    3.0000    0.2921    0.0145    0.2776   -4.0349
  125    3.0000    0.7250    0.3930    0.3319   -4.1269
  126    3.0000    0.3943    0.1579    0.2363   -4.4627
  127    3.0000    0.2922    0.1460    0.1462   -4.6399
  128    3.0000    0.6854    0.3510    0.3343   -4.3120
  129    3.0000    0.7644    0.2901    0.4743   -4.3841
  130    3.0000    0.8319    0.3036    0.5283   -4.3709
  131    3.0000    0.6274    0.1215    0.5059   -5.0723
  132    3.0000    0.7850    0.1815    0.6035   -5.0652
  133    2.0000    0.8109    0.2994    0.5115   -6.5305
  134    3.0000    0.3884    0.0936    0.2948   -5.5252
  135    2.0000    0.5871    0.3205    0.2666   -6.8515
  136    3.0000    0.5090    0.1769    0.3320   -5.7302
  137    2.0000    0.4240    0.1181    0.3059   -6.9147
  138    2.0000    0.1609    0.0483    0.1127   -7.9027
  139    2.0000    0.1780    0.0354    0.1426   -7.0323
  140    2.0000    0.1902    0.0386    0.1516   -7.7484
  141    2.0000    0.3411    0.0300    0.3112   -8.0123
  142    2.0000    0.5645    0.0216    0.5430   -7.0005
  143    3.0000    0.6053    0.0717    0.5336   -5.4361
  144    3.0000    1.5950    1.0852    0.5098   -3.9016
  145    2.0000    1.2364    0.7463    0.4902   -6.9224
  146    3.0000    0.7146    0.2227    0.4918   -3.0787
  147    1.0000    0.7567    0.2177    0.5391  -10.5150
  148    1.0000    0.7859    0.3466    0.4392   -9.3303
  149    1.0000    0.6064    0.0693    0.5371  -10.6532
  150    2.0000    0.6636    0.0591    0.6044   -6.6590
  151    3.0000    0.4419    0.0926    0.3493   -5.2059
  152    3.0000    0.6713    0.2720    0.3994   -4.8732
  153    3.0000    0.5364    0.1683    0.3681   -3.2820
  154    2.0000    0.2708    0.0696    0.2012   -7.2038
  155    2.0000    0.1721    0.0667    0.1055   -6.2006
  156    2.0000    0.2193    0.0584    0.1610   -6.4788
  157    3.0000    0.2935    0.0806    0.2129   -5.8327
  158    2.0000    0.3228    0.0496    0.2732   -6.3713
  159    2.0000    0.2879    0.0487    0.2391   -8.0144
  160    1.0000    0.2214    0.0589    0.1625  -10.0195
  161    1.0000    0.2519    0.1188    0.1331  -10.7254
  162    1.0000    0.2663    0.1379    0.1284  -10.3449
  163    1.0000    0.3053    0.1572    0.1481  -10.7423
  164    1.0000    0.7208    0.4351    0.2857   -9.6333
  165    1.0000    0.6614    0.3305    0.3309   -9.6112
  166    1.0000    0.5886    0.1460    0.4426   -9.2770
  167    1.0000    0.7399    0.2559    0.4840   -9.1481
  168    3.0000    1.5863    0.9622    0.6240    2.8036
  169    3.0000    1.6918    0.9690    0.7228   -4.4344
  170    3.0000    1.0420    0.4350    0.6070    1.5191
  171    3.0000    1.4785    1.0296    0.4490   -5.4425
  172    3.0000    3.4383    3.1019    0.3364   -4.0622
  173    2.0000    0.3317    0.0113    0.3204   -6.0314
  174    1.0000    0.2627    0.0162    0.2465   -9.1749
  175    2.0000    0.0922    0.0257    0.0665   -7.3184
  176    2.0000    0.0596    0.0133    0.0463   -6.8305
  177    2.0000    0.0751    0.0060    0.0692   -6.8361
  178    2.0000    0.1447    0.0548    0.0899   -6.8848
  179    2.0000    0.2795    0.1061    0.1734   -6.3037
  180    3.0000    0.3645    0.0735    0.2910   -5.8833
  181    2.0000    0.4336    0.0397    0.3939   -6.5979
  182    3.0000    0.6327    0.0162    0.6165   -4.9740
  183    3.0000    0.5838    0.0141    0.5697   -3.4181
  184    3.0000    0.5057    0.0249    0.4808   -4.7997
  185    3.0000    0.5871    0.0264    0.5608   -4.7320
  186    3.0000    0.4269    0.0114    0.4156   -5.3410
  187    2.0000    0.2000    0.0217    0.1784   -7.1466
  188    2.0000    0.0677    0.0275    0.0402   -7.6026
  189    2.0000    0.0585    0.0335    0.0250   -7.3814
  190    2.0000    0.0292    0.0088    0.0203   -7.5241
  191    2.0000    0.0474    0.0314    0.0160   -7.7593
  192    2.0000    0.0790    0.0674    0.0116   -7.6596
  193    2.0000    0.0631    0.0557    0.0074   -7.7312
  194    2.0000    0.0540    0.0459    0.0080   -7.9335
  195    2.0000    0.0300    0.0224    0.0076   -7.7005
  196    2.0000    0.0250    0.0146    0.0104   -7.6496
  197    2.0000    0.0390    0.0245    0.0145   -7.9445
  198    2.0000    0.0342    0.0174    0.0168   -8.0982
  199    2.0000    0.0496    0.0343    0.0154   -6.7786
  200    2.0000    0.0113    0.0086    0.0027   -6.5263
  201    2.0000    0.0580    0.0357    0.0223   -8.6836
  202    2.0000    0.1676    0.0753    0.0923   -7.5046
  203    2.0000    0.3119    0.1270    0.1849   -8.2457
  204    2.0000    0.5565    0.1338    0.4227   -7.0892
  205    2.0000    0.6845    0.1019    0.5826   -6.1519
  206    3.0000    0.7831    0.1737    0.6094   -5.9789
  207    2.0000    0.6300    0.0985    0.5315   -6.0032
  208    2.0000    0.5589    0.0655    0.4934   -6.4128
  209    2.0000    0.5930    0.0419    0.5511   -7.1579
  210    3.0000    0.8062    0.0341    0.7721   -4.9306
  211    2.0000    0.7587    0.1461    0.6127   -7.2575
  212    2.0000    0.4776    0.0950    0.3827   -7.6759
  213    2.0000    0.3407    0.0512    0.2895   -7.9790
  214    2.0000    0.6744    0.0863    0.5881   -6.2029
  215    2.0000    0.6633    0.0313    0.6320   -6.6399
  216    2.0000    0.4398    0.0991    0.3407   -8.7113
  217    2.0000    0.2711    0.0543    0.2168   -8.2057
  218    2.0000    0.1468    0.0279    0.1189   -7.9031
  219    2.0000    0.1296    0.0215    0.1081   -7.5926
  220    2.0000    0.1454    0.0394    0.1060   -7.4418
  221    2.0000    0.1717    0.0526    0.1191   -7.5620
  222    2.0000    0.2928    0.0484    0.2443   -7.7983
  223    2.0000    0.3970    0.1134    0.2836   -7.4487
  224    2.0000    0.3307    0.0438    0.2869   -6.5432
  225    3.0000    1.0555    0.6744    0.3811   -5.5046
  226    2.0000    1.8981    1.3985    0.4995   -6.1950
  227    3.0000    0.4669    0.0749    0.3920   -4.9768
  228    3.0000    0.5124    0.0556    0.4568   -5.9245
  229    2.0000    0.6193    0.0492    0.5701   -6.3592
  230    2.0000    0.8252    0.3285    0.4967   -6.3653
  231    3.0000    1.1936    0.7035    0.4901   -1.2741
  232    3.0000    1.0644    0.4882    0.5762   -4.2785
  233    2.0000    0.9773    0.3395    0.6378   -6.4943
  234    2.0000    0.8059    0.2538    0.5521   -6.3033
  235    2.0000    0.6029    0.3102    0.2927   -8.1741
  236    1.0000    1.3815    1.0731    0.3084   -9.0066
  237    2.0000    0.7246    0.2948    0.4298   -7.5089
  238    2.0000    0.4327    0.0963    0.3364   -7.2303
  239    2.0000    0.8125    0.5399    0.2726   -7.5514
  240    2.0000    0.7087    0.2999    0.4088   -6.7307
  241    2.0000    0.5938    0.1700    0.4238   -8.6308
  242    2.0000    0.4511    0.0312    0.4199   -8.7133
  243    2.0000    0.6469    0.0760    0.5709   -7.8081
  244    3.0000    0.7037    0.1420    0.5617   -1.3665
  245    3.0000    2.3720    1.8541    0.5180   -2.8161
  246    2.0000    1.3713    0.8194    0.5519   -7.4888
  247    2.0000    0.5741    0.1225    0.4517   -7.6819
  248    1.0000    0.5486    0.1398    0.4087  -11.0510
  249    1.0000    0.6523    0.2964    0.3560   -9.9947
  250    3.0000    0.8980    0.1471    0.7509   -5.4285
  251    2.0000    0.8497    0.2048    0.6449   -6.1754
  252    3.0000    0.9303    0.6194    0.3109   -5.8183
  253    2.0000    0.6089    0.3367    0.2723   -6.9495
  254    2.0000    0.3908    0.1884    0.2023   -7.2423
  255    2.0000    0.1259    0.0331    0.0928   -7.7630
  256    3.0000    0.2777    0.1232    0.1545   -5.8562
  257    2.0000    0.4057    0.1639    0.2418   -7.2315
  258    2.0000    0.3583    0.1092    0.2491   -8.4223
  259    1.0000    0.2917    0.0547    0.2370  -10.5239
  260    1.0000    0.5545    0.3470    0.2075  -11.4251
  261    1.0000    1.7605    1.4864    0.2741   -9.0482
  262    2.0000    1.4317    1.0150    0.4167   -8.7955
  263    1.0000    1.2570    0.8377    0.4193   -9.4491
  264    3.0000    1.3875    0.9635    0.4240   -5.8590
  265    1.0000    1.0131    0.4793    0.5337  -10.0230
  266    2.0000    0.7383    0.1859    0.5524   -8.8187
  267    2.0000    0.5749    0.0910    0.4839   -7.0618
  268    3.0000    0.6877    0.3775    0.3102   -5.9855
  269    3.0000    1.3242    0.6897    0.6345   -5.8850
  270    3.0000    2.3881    1.5396    0.8485    7.1284
  271    2.0000    2.4485    1.8043    0.6442   -8.7468
  272    2.0000    3.7366    3.1136    0.6230   -6.7194
  273    3.0000    3.8004    3.3317    0.4686   -1.9457
  274    2.0000    0.4954    0.2220    0.2734   -7.5105
  275    2.0000    0.1741    0.0310    0.1430   -7.8959
  276    2.0000    0.0886    0.0247    0.0639   -8.1985
  277    2.0000    0.0729    0.0224    0.0505   -8.2591
  278    2.0000    0.1094    0.0294    0.0800   -7.7759
  279    2.0000    0.1581    0.0489    0.1092   -7.9400
  280    2.0000    0.1643    0.0084    0.1559   -7.7142
  281    2.0000    0.2666    0.0330    0.2336   -8.4871
  282    2.0000    0.5886    0.0524    0.5361   -6.5943
  283    2.0000    0.5576    0.0222    0.5354   -7.0095
  284    1.0000    0.2832    0.0308    0.2524   -9.1056
  285    2.0000    0.4043    0.0181    0.3862   -7.6668
  286    2.0000    0.5673    0.0315    0.5358   -6.3020
  287    2.0000    0.4983    0.0244    0.4739   -6.1787
  288    2.0000    0.2582    0.0093    0.2489   -7.3931
  289    2.0000    0.1166    0.0329    0.0837   -8.5854
  290    1.0000    0.0509    0.0151    0.0358   -9.4848
  291    2.0000    0.0596    0.0406    0.0190   -8.7493
  292    2.0000    0.0822    0.0637    0.0185   -8.4250
  293    2.0000    0.0814    0.0576    0.0238   -8.6089
  294    1.0000    0.0820    0.0583    0.0237   -9.1023
  295    2.0000    0.0552    0.0203    0.0349   -8.9049
  296    2.0000    0.0414    0.0212    0.0202   -8.9150
  297    2.0000    0.0507    0.0288    0.0220   -8.6885
  298    2.0000    0.0572    0.0316    0.0257   -8.5134
  299    2.0000    0.0619    0.0304    0.0314   -8.2866
  300    2.0000    0.0507    0.0341    0.0167   -6.5013
  301    3.0000    0.1822    0.0197    0.1625   -5.8031
  302    2.0000    0.3614    0.0320    0.3294   -6.7029
  303    2.0000    0.5005    0.0065    0.4940   -6.5171
  304    2.0000    0.5992    0.0166    0.5825   -6.1783
  305    2.0000    0.4969    0.0416    0.4553   -6.2897
  306    2.0000    0.3812    0.0434    0.3378   -8.1954
  307    1.0000    0.2807    0.0087    0.2720   -9.3797
  308    2.0000    0.6189    0.0509    0.5680   -7.9218
  309    1.0000    0.8595    0.1755    0.6840   -9.0047
  310    2.0000    0.9408    0.2315    0.7093   -7.4549
  311    2.0000    0.6440    0.1181    0.5259   -6.7575
  312    2.0000    0.3987    0.0424    0.3563   -8.4392
  313    2.0000    0.4811    0.0694    0.4117   -7.6290
  314    2.0000    0.6053    0.0505    0.5548   -7.3137
  315    2.0000    0.5935    0.1075    0.4860   -8.0610
  316    1.0000    0.1731    0.0185    0.1546  -10.1149
  317    1.0000    0.0765    0.0406    0.0359   -9.9278
  318    1.0000    0.0505    0.0181    0.0324   -9.1985
  319    1.0000    0.0551    0.0157    0.0394   -9.0186
  320    2.0000    0.1315    0.0717    0.0598   -8.9640
  321    2.0000    0.2930    0.1898    0.1032   -8.9908
  322    2.0000    0.3737    0.1426    0.2311   -8.9740
  323    2.0000    0.4545    0.0527    0.4018   -8.0146
  324    2.0000    0.5966    0.2706    0.3260   -6.0833
  325    3.0000    1.5883    1.2147    0.3737   -5.9171
  326    2.0000    2.4452    1.8915    0.5537   -7.5593
  327    3.0000    1.3762    0.6061    0.7702    0.6762
  328    2.0000    0.7149    0.1311    0.5838   -6.3229
  329    2.0000    0.6048    0.2079    0.3969   -7.1370
  330    2.0000    0.9828    0.7222    0.2605   -7.2648
  331    2.0000    1.7573    1.4038    0.3535   -6.1077
  332    2.0000    0.6927    0.2187    0.4740   -7.9586
  333    2.0000    0.5272    0.0821    0.4451   -6.9002
  334    2.0000    0.7057    0.2316    0.4741   -7.4655
  335    2.0000    0.8386    0.5671    0.2715   -8.9185
  336    3.0000    2.0534    1.8726    0.1808   -4.5595
  337    2.0000    1.1433    0.7510    0.3922   -8.3694
  338    3.0000    1.9905    1.3440    0.6466   -3.8013
  339    2.0000    2.9951    2.2681    0.7270   -6.5285
  340    1.0000    2.1088    1.5186    0.5902   -9.0059
  341    1.0000    1.3215    0.9085    0.4130   -9.1917
  342    3.0000    1.1128    0.6096    0.5031   -1.6145
  343    2.0000    0.8664    0.3635    0.5028   -8.6566
  344    2.0000    0.4808    0.0979    0.3829   -7.4258
  345    3.0000    2.1558    1.6852    0.4706   -3.9470
  346    2.0000    1.6301    1.0944    0.5357   -7.6764
  347    2.0000    0.6083    0.1815    0.4268   -7.9714
  348    1.0000    0.7740    0.2898    0.4842  -11.3551
  349    2.0000    0.7590    0.1299    0.6291   -8.3325
  350    2.0000    1.0224    0.3060    0.7164   -7.4971
  351    3.0000    1.2574    0.7499    0.5075   -2.2449
  352    2.0000    1.1301    0.8354    0.2947   -6.6528
  353    2.0000    0.9733    0.7012    0.2721   -7.4343
  354    2.0000    0.5163    0.3717    0.1446   -8.6911
  355    2.0000    0.6948    0.6148    0.0800   -7.9197
  356    2.0000    0.8074    0.6624    0.1450   -6.4547
  357    1.0000    0.6470    0.4407    0.2063  -10.0053
  358    1.0000    0.3281    0.0873    0.2408  -10.4718
  359    1.0000    0.5228    0.2552    0.2677  -10.8487
  360    1.0000    1.2092    0.7452    0.4640  -11.9397
  361    1.0000    1.1186    0.4734    0.6452   -9.1123
  362    0.0000    1.1088    0.4673    0.6415  -12.2903
  363    1.0000    1.3836    0.9416    0.4421  -10.7668
  364    2.0000    0.5950    0.1167    0.4783   -7.8332
  365    2.0000    0.6676    0.2101    0.4575   -6.5182
  366    2.0000    0.4487    0.0975    0.3512   -6.6861
  367    2.0000    0.3801    0.1596    0.2205   -7.1898
  368    3.0000    0.5375    0.1602    0.3772   -4.7372
  369    2.0000    1.8187    1.1990    0.6197   -6.2865
  370    3.0000    2.0155    1.3694    0.6461   -1.9534
  371    3.0000    1.9634    1.2762    0.6873   -3.8910
  372    2.0000    3.6730    3.0308    0.6422   -6.9309
  373    3.0000    2.2880    1.9311    0.3569   -3.6022
  374    3.0000    0.7818    0.5823    0.1995   -4.2478
  375    2.0000    0.2407    0.1776    0.0631   -8.7803
  376    2.0000    0.1049    0.0562    0.0487   -8.9103
  377    2.0000    0.0558    0.0207    0.0351   -8.7326
  378    2.0000    0.0658    0.0267    0.0391   -8.2846
  379    2.0000    0.1145    0.0200    0.0945   -8.6059
  380    2.0000    0.0950    0.0061    0.0889   -7.9311
  381    2.0000    0.1866    0.0283    0.1583   -8.2419
  382    2.0000    0.3449    0.0409    0.3041   -7.3712
  383    2.0000    0.2715    0.0185    0.2530   -8.4793
  384    1.0000    0.2146    0.0484    0.1662  -10.6513
  385    1.0000    0.3003    0.0296    0.2708  -10.1122
  386    2.0000    0.5246    0.0347    0.4899   -7.2642
  387    2.0000    0.5902    0.0639    0.5263   -6.2937
  388    2.0000    0.3644    0.0128    0.3516   -6.7995
  389    2.0000    0.2225    0.0628    0.1597   -8.3018
  390    2.0000    0.1614    0.1208    0.0406   -8.7849
  391    1.0000    0.1143    0.0919    0.0224   -9.5715
  392    1.0000    0.0894    0.0671    0.0223   -9.2811
  393    2.0000    0.1353    0.0788    0.0564   -8.9240
  394    2.0000    0.0871    0.0063    0.0808   -8.3941
  395    2.0000    0.1235    0.0662    0.0572   -8.7380
  396    2.0000    0.0908    0.0632    0.0276   -8.6233
  397    2.0000    0.0701    0.0426    0.0275   -8.7996
  398    2.0000    0.0815    0.0544    0.0271   -8.6451
  399    2.0000    0.0470    0.0210    0.0260   -7.1361
  400    2.0000    0.0112    0.0065    0.0047   -6.5527
  401    3.0000    0.1431    0.0023    0.1408   -4.2886
  402    3.0000    0.5063    0.0262    0.4801   -4.4286
  403    2.0000    0.6430    0.0389    0.6041   -6.1322
  404    2.0000    0.6322    0.1386    0.4936   -7.4463
  405    1.0000    0.4190    0.1019    0.3171   -9.3900
  406    1.0000    0.2782    0.0792    0.1990  -10.5704
  407    1.0000    0.2670    0.1099    0.1570  -10.8443
  408    1.0000    0.2347    0.0221    0.2125   -9.7044
  409    2.0000    0.3483    0.0489    0.2995   -8.0995
  410    2.0000    0.5026    0.0506    0.4520   -8.6121
  411    2.0000    0.3298    0.0795    0.2503   -7.9295
  412    2.0000    0.2166    0.0300    0.1866   -8.3464
  413    1.0000    0.4514    0.0349    0.4165  -10.8257
  414    2.0000    0.5621    0.0701    0.4920   -7.7480
  415    2.0000    0.3975    0.0314    0.3661   -7.3991
  416    1.0000    0.2315    0.1065    0.1250  -10.1090
  417    1.0000    0.1134    0.0758    0.0376  -10.3701
  418    1.0000    0.0453    0.0298    0.0156  -10.1980
  419    1.0000    0.0192    0.0044    0.0148   -9.8911
  420    1.0000    0.0603    0.0383    0.0221   -9.9316
  421    1.0000    0.0519    0.0156    0.0363  -10.2365
  422    1.0000    0.0805    0.0252    0.0553  -10.5954
  423    2.0000    0.4021    0.1596    0.2425   -8.5034
  424    2.0000    0.5297    0.1581    0.3716   -6.7661
  425    2.0000    0.5950    0.3670    0.2280   -6.1762
  426    3.0000    1.8563    1.4257    0.4306   -4.4466
  427    3.0000    4.4363    3.5634    0.8729   -4.0533
  428    3.0000    4.9532    4.3155    0.6377   -4.7755
  429    2.0000    4.9189    4.4679    0.4511   -7.2992
  430    2.0000    3.0843    2.5942    0.4901   -6.9806
  431    2.0000    2.9462    2.3533    0.5928   -6.3508
  432    3.0000    1.9106    1.5152    0.3954   -2.3845
  433    2.0000    0.4114    0.1225    0.2889   -7.3811
  434    2.0000    0.5349    0.0500    0.4849   -6.5891
  435    2.0000    0.8177    0.3844    0.4333   -6.5953
  436    2.0000    1.0571    0.6177    0.4394   -6.5035
  437    1.0000    1.5001    1.0350    0.4652   -9.5678
  438    1.0000    1.6181    1.0908    0.5272  -10.6305
  439    1.0000    2.5247    1.7486    0.7761   -9.8001
  440    3.0000    1.4855    0.8121    0.6733   -4.9948
  441    2.0000    0.3405    0.0557    0.2848   -7.2415
  442    2.0000    0.4278    0.2077    0.2202   -7.3623
  443    2.0000    0.4647    0.1788    0.2859   -8.2943
  444    1.0000    0.6192    0.2266    0.3926   -9.5462
  445    2.0000    0.5688    0.1054    0.4634   -7.4026
  446    3.0000    2.0171    1.5656    0.4514   -5.0360
  447    2.0000    1.4344    0.8118    0.6226   -6.4910
  448    3.0000    0.9454    0.2690    0.6764   -5.5521
  449    3.0000    1.0007    0.2816    0.7191   -5.5493
  450    3.0000    1.1404    0.2045    0.9359   -3.8357
  451    2.0000    0.8231    0.2669    0.5561   -6.5121
  452    3.0000    2.5797    2.1848    0.3949   -2.0522
  453    2.0000    1.6969    1.1978    0.4991   -7.1758
  454    3.0000    0.7881    0.3313    0.4568   -4.7714
  455    2.0000    0.4707    0.2639    0.2068   -7.8432
  456    2.0000    0.4503    0.1638    0.2865   -7.7230
  457    2.0000    0.5589    0.2205    0.3384   -8.7718
  458    1.0000    0.6111    0.2776    0.3335   -9.8956
  459    2.0000    1.0140    0.6258    0.3882   -7.4723
  460    1.0000    1.3622    0.8205    0.5417   -9.1782
  461    3.0000    1.7186    1.0942    0.6244   -3.9053
  462    3.0000    1.2687    0.6365    0.6322   -3.8519
  463    2.0000    0.9803    0.4034    0.5769   -7.5384
  464    2.0000    0.5558    0.1173    0.4385   -8.6485
  465    2.0000    0.3222    0.0338    0.2884   -7.4432
  466    2.0000    0.2616    0.0374    0.2242   -7.8657
  467    2.0000    0.2267    0.0841    0.1426   -8.3883
  468    2.0000    0.4219    0.2549    0.1670   -8.4034
  469    3.0000    0.4513    0.1158    0.3355   -5.1744
  470    2.0000    0.7332    0.1116    0.6216   -6.9985
  471    2.0000    1.0361    0.4761    0.5600   -7.2408
  472    1.0000    2.1473    1.7139    0.4334   -9.7985
  473    2.0000    3.3567    2.6886    0.6681   -6.7325
  474    3.0000    1.4688    0.9099    0.5589    2.0093
  475    2.0000    1.2004    0.9307    0.2697   -7.3092
  476    1.0000    0.2782    0.1618    0.1164   -9.8545
  477    1.0000    0.0611    0.0057    0.0554  -10.0814
  478    1.0000    0.0638    0.0072    0.0567   -9.1718
  479    1.0000    0.1027    0.0506    0.0521   -9.2214
  480    2.0000    0.1036    0.0581    0.0455   -8.7935
  481    2.0000    0.0917    0.0259    0.0658   -8.6225
  482    2.0000    0.1170    0.0249    0.0922   -8.2731
  483    2.0000    0.1206    0.0138    0.1068   -8.0367
  484    1.0000    0.2883    0.0638    0.2246   -9.2665
  485    1.0000    0.2536    0.0617    0.1919  -11.7223
  486    1.0000    0.2696    0.0611    0.2084  -10.9491
  487    2.0000    0.4736    0.0241    0.4496   -8.5014
  488    2.0000    0.7079    0.0993    0.6086   -6.3145
  489    3.0000    0.5793    0.1081    0.4712   -5.6232
  490    2.0000    0.5161    0.2218    0.2943   -6.9931
  491    1.0000    0.2383    0.0846    0.1537   -9.3960
  492    1.0000    0.0625    0.0352    0.0274  -10.4311
  493    1.0000    0.1407    0.0505    0.0902   -9.1417
  494    2.0000    0.2277    0.1081    0.1196   -8.1736
  495    1.0000    0.1482    0.0682    0.0801   -9.1612
  496    2.0000    0.0485    0.0172    0.0313   -8.8755
  497    1.0000    0.0582    0.0366    0.0216   -9.0658
  498    2.0000    0.0267    0.0074    0.0193   -8.7894
  499    2.0000    0.0601    0.0361    0.0240   -8.4520
  500    2.0000    0.0379    0.0183    0.0196   -6.3897
  501    3.0000    0.3633    0.0163    0.3470   -4.1378
  502    2.0000    0.5576    0.0102    0.5474   -7.0832
  503    1.0000    0.4797    0.0607    0.4190   -9.3084
  504    1.0000    0.2916    0.0954    0.1962  -11.0969
  505    1.0000    0.2675    0.1643    0.1032  -11.7912
  506    1.0000    0.3054    0.1464    0.1590  -11.2483
  507    1.0000    0.2263    0.0939    0.1324  -10.7612
  508    1.0000    0.2265    0.0363    0.1903   -9.5134
  509    2.0000    0.5319    0.2760    0.2558   -7.6050
  510    2.0000    0.2595    0.0569    0.2026   -7.3731
  511    2.0000    0.1614    0.0478    0.1136   -8.1451
  512    2.0000    0.2698    0.0255    0.2443   -8.9842
  513    1.0000    0.3484    0.0098    0.3386  -11.0468
  514    2.0000    0.3193    0.0972    0.2221   -8.3383
  515    2.0000    0.1957    0.0041    0.1916   -7.6326
  516    1.0000    0.2103    0.1350    0.0752   -9.6664
  517    1.0000    0.0904    0.0685    0.0218  -10.1441
  518    1.0000    0.0889    0.0773    0.0116  -10.3314
  519    1.0000    0.0743    0.0583    0.0159  -10.1388
  520    1.0000    0.0557    0.0344    0.0213   -9.5935
  521    1.0000    0.0951    0.0501    0.0450   -9.6222
  522    1.0000    0.3223    0.1038    0.2185   -9.7914
  523    2.0000    0.4712    0.1705    0.3007   -7.4126
  524    2.0000    0.9160    0.7150    0.2010   -6.9020
  525    2.0000    1.5628    1.2848    0.2780   -6.0615
  526    3.0000    6.5876    6.0168    0.5708   -3.3813
  527    3.0000    8.7604    8.0020    0.7584   -0.9693
  528    3.0000    8.6198    7.9758    0.6440    4.5280
  529    2.0000    4.0117    3.5719    0.4398   -7.1533
  530    3.0000    1.9509    1.2336    0.7173   -1.5454
  531    2.0000    2.4159    1.7743    0.6416   -6.0823
  532    2.0000    1.4560    1.2673    0.1887   -6.3107
  533    3.0000    0.5115    0.0586    0.4530   -4.7363
  534    2.0000    0.7940    0.0992    0.6948   -6.1340
  535    2.0000    0.9606    0.4952    0.4654   -7.4211