32832
Atoms. Timestep: 0
C1	 -9.00466537	 -56.8986626	 -1.56513679
C1	 1.21853352	 65.2314148	 -1.00008976
C1	 -3.87653518	 -57.153553	 0.96914643
C1	 -0.0811129808	 61.1500854	 -1.38714826
C1	 -9.62410736	 -56.5694046	 0.207494393
C1	 -10.6943188	 -56.2545509	 1.86727023
C1	 -11.8088675	 -56.1942024	 3.29527569
C1	 -13.405467	 -56.5279503	 4.41045094
C1	 -15.4032412	 -57.2121506	 5.45320463
C1	 -17.641983	 -57.6417694	 6.95430899
C1	 -19.8538895	 -58.2070999	 8.53910351
C1	 -22.9417019	 -57.1807175	 9.73205471
C1	 -25.4082222	 -54.7627144	 9.58236313
C1	 -27.0043049	 -52.0446396	 7.71728086
C1	 -27.5361805	 -50.3460922	 5.10715818
C1	 -28.1338654	 -49.8467216	 2.82315516
C1	 -28.7735996	 -49.7767181	 0.464165986
C1	 -29.9127331	 -49.9839211	 -0.943501949
C1	 -31.7477837	 -50.2944641	 -1.97062612
C1	 -34.4792976	 -50.3457184	 -2.67146826
C1	 -37.4790001	 -50.1923676	 -4.27472448
C1	 -40.4545593	 -48.3301544	 -6.82540941
C1	 -41.6865616	 -45.3086548	 -7.1540556
C1	 -41.8691864	 -42.0113068	 -6.61924028
C1	 -41.0391197	 -39.2899628	 -4.23258018
C1	 -40.2739906	 -38.2443008	 -2.46103024
C1	 -39.8237	 -37.32621	 -0.574841559
C1	 -39.7607346	 -36.7124405	 1.06323957
C1	 -40.4873238	 -36.1477127	 2.39800835
C1	 -41.8342285	 -35.4869308	 3.39505172
C1	 -43.3441124	 -35.0128708	 4.89156246
C1	 -45.107605	 -35.1373901	 6.60626888
C1	 -47.3702774	 -34.8518372	 8.50649738
C1	 -49.0712128	 -33.5057793	 9.68761158
C1	 -50.6938934	 -31.7993374	 9.96365833
C1	 -52.3189392	 -30.6356373	 9.00967216
C1	 -53.8377647	 -29.7508907	 7.57495546
C1	 -55.1087151	 -29.2320824	 5.89398336
C1	 -56.2638168	 -28.5910912	 4.65862036
C1	 -57.5077782	 -28.0365067	 3.78873539
C1	 -59.4807053	 -27.2971153	 3.27002764
C1	 -62.0744629	 -27.4807453	 1.93270636
C1	 -64.0496063	 -26.6859303	 1.06698346
C1	 -66.3223114	 -26.3128605	 -0.82131362
C1	 -68.326149	 -25.6353836	 -2.97950459
C1	 -69.4234619	 -23.4319019	 -5.8123827
C1	 -68.2366791	 -20.4385662	 -7.95151472
C1	 -65.6755676	 -18.1732349	 -8.66592407
C1	 -62.6036415	 -16.5225372	 -8.45677948
C1	 -59.8556747	 -15.5253067	 -7.80044317
C1	 -57.6617622	 -14.4734697	 -7.24440527
C1	 -55.2258034	 -13.1558104	 -6.83059835
C1	 -52.7735138	 -11.7685947	 -6.38272285
C1	 -50.6259689	 -10.1907673	 -5.95296478
C1	 -48.383728	 -8.27690697	 -5.56985188
C1	 -46.1606102	 -6.39439678	 -5.06539583
C1	 -44.2357559	 -4.39002228	 -4.49041748
C1	 -42.6360626	 -2.18334413	 -4.00555563
C1	 -40.9608612	 0.0454626083	 -3.6868
C1	 -40.258213	 1.93596339	 -3.06331611
C1	 -40.2637177	 3.93361545	 -2.14372468
C1	 -40.9592781	 6.33238602	 -0.784886181
C1	 -41.5001945	 8.63554859	 0.597063482
C1	 -42.2588654	 10.8324471	 2.0853858
C1	 -43.3354836	 13.2252817	 3.38605237
C1	 -44.5397644	 15.7412834	 4.36454535
C1	 -45.8244247	 18.1704826	 5.25708294
C1	 -47.4087257	 20.7258892	 5.95782042
C1	 -49.1589432	 23.2189636	 6.351686
C1	 -50.9458199	 25.6076164	 6.66392946
C1	 -53.1853409	 28.0551395	 6.50689316
C1	 -55.5435448	 30.4858017	 5.0743742
C1	 -56.9956169	 32.5112	 2.32263541
C1	 -56.2950439	 34.3218689	 -0.837919414
C1	 -54.4422607	 35.6731262	 -2.53953862
C1	 -52.4537506	 36.7550545	 -3.68114519
C1	 -50.6872444	 37.6030464	 -4.6389842
C1	 -49.3159065	 38.3373337	 -5.65744305
C1	 -48.1775818	 39.1953468	 -7.093009
C1	 -47.0807114	 40.6029663	 -8.86957073
C1	 -45.6435051	 42.7203102	 -10.0938778
C1	 -43.9944992	 44.4404907	 -11.2271376
C1	 -42.6039772	 46.6917038	 -11.4326506
C1	 -41.2328949	 48.8661499	 -11.1969652
C1	 -39.7885704	 50.8507195	 -10.3486996
C1	 -38.3074875	 52.459816	 -7.88364935
C1	 -36.4365768	 53.8953247	 -6.32905483
C1	 -35.2148514	 55.2740211	 -5.03344059
C1	 -34.2166367	 57.1716461	 -3.72489643
C1	 -32.9491615	 59.3552322	 -2.04764605
C1	 -30.6665459	 61.6664505	 -0.598604858
C1	 -26.5573654	 62.3779831	 0.822933972
C1	 -23.3227444	 60.6486206	 1.48219192
C1	 -21.3903103	 58.5914536	 2.00472593
C1	 -20.0793209	 56.6218491	 2.45501161
C1	 -19.0797501	 55.3574142	 2.82657075
C1	 -17.8094234	 54.483242	 3.37489986
C1	 -16.7370548	 54.0808296	 3.83664656
C1	 -15.5139027	 54.0826187	 4.09071493
C1	 -14.2320251	 54.4958839	 3.90336752
C1	 -12.8690596	 54.7569962	 3.39145875
C1	 -11.6632652	 55.3653259	 3.26707697
C1	 -10.2326832	 56.3784981	 2.9429903
C1	 -8.71512127	 57.4520416	 2.68914223
C1	 -7.14838123	 58.6155319	 2.50293612
C1	 -5.70515776	 60.1094933	 2.31711698
C1	 -4.10263634	 61.990921	 2.01358199
C1	 -2.12070107	 64.2403946	 1.33362651
C1	 -1.13386393	 65.8735886	 -3.33209753
C1	 -3.57669377	 66.09478	 -5.41519403
C1	 -6.11073971	 66.3411026	 -7.51418781
C1	 -8.03092194	 65.5863571	 -10.5253706
C1	 -7.41763163	 65.0819397	 -13.145731
C1	 -6.62477446	 64.5774994	 -15.5829868
C1	 -5.55691957	 64.661293	 -17.7360439
C1	 -4.12928343	 64.3839569	 -20.02771
C1	 -2.33763146	 64.2325058	 -21.8136368
C1	 -0.537959158	 64.1171265	 -23.4438286
C1	 1.38827467	 64.1898956	 -25.1292496
C1	 3.94985533	 63.9102783	 -26.8698997
C1	 6.88543653	 62.3758545	 -28.1909714
C1	 8.86442184	 59.137825	 -28.8714981
C1	 9.42759705	 55.8315315	 -29.2239799
C1	 9.26733494	 53.0974045	 -29.9334488
C1	 9.18257046	 50.8706703	 -30.6305809
C1	 9.65808105	 48.8991852	 -31.3417149
C1	 10.5946569	 46.8786545	 -32.3102875
C1	 11.9051542	 44.8265076	 -33.6632538
C1	 12.457778	 42.8831558	 -36.3089676
C1	 13.5511627	 41.5622177	 -39.7656975
C1	 13.8735647	 42.2386932	 -44.0337219
C1	 12.9044333	 41.8632469	 -47.4718819
C1	 11.943718	 40.7569733	 -50.2720413
C1	 10.6621065	 38.8462143	 -52.680954
C1	 8.36270523	 37.5730972	 -55.0461044
C1	 5.55323553	 35.5983963	 -56.8410721
C1	 2.32212853	 32.8915329	 -57.1894531
C1	 -0.423274577	 30.6023331	 -55.7729416
C1	 -2.73744941	 29.0018768	 -53.8359985
C1	 -4.5021081	 28.0058022	 -52.0322647
C1	 -5.97109747	 27.0849266	 -50.8199005
C1	 -7.60479403	 26.1672745	 -49.7997284
C1	 -8.55908966	 25.2282848	 -49.4588318
C1	 -9.26524067	 24.0811729	 -49.4720879
C1	 -9.37894821	 22.5441914	 -50.1349373
C1	 -9.52098846	 21.1677074	 -50.8714447
C1	 -9.2781086	 19.9637089	 -51.7462769
C1	 -8.65887356	 19.04175	 -52.9592285
C1	 -7.8113966	 18.1164341	 -54.535965
C1	 -7.01224041	 17.5216942	 -56.3058777
C1	 -5.77824736	 17.1477051	 -58.4856644
C1	 -4.1253705	 16.7235317	 -60.9093246
C1	 -2.17572546	 15.8463974	 -63.325882
C1	 0.554579616	 14.1949024	 -65.079628
C1	 3.33082342	 11.8018532	 -65.4753265
C1	 5.74825191	 9.41104507	 -64.6828003
C1	 7.39303589	 6.42028379	 -63.5161057
C1	 8.41279221	 3.84483719	 -60.8692245
C1	 8.59329796	 0.922498703	 -59.1368256
C1	 8.48991489	 -2.01592159	 -57.8371811
C1	 7.89114904	 -5.05566311	 -57.0800438
C1	 6.79464293	 -7.71677876	 -56.8779144
C1	 5.46106434	 -9.87382984	 -57.0627594
C1	 4.47403431	 -11.7055492	 -57.6022949
C1	 3.58697486	 -13.535821	 -58.4490967
C1	 2.77310538	 -15.5353613	 -59.4509773
C1	 1.90934157	 -17.5056572	 -60.5632401
C1	 0.940682948	 -19.8591385	 -61.6388283
C1	 -1.04439139	 -23.0033798	 -62.206501
C1	 -3.7817533	 -25.8532219	 -60.6218719
C1	 -5.20204687	 -27.0553188	 -56.6649818
C1	 -4.47942209	 -27.1204338	 -53.4438286
C1	 -3.21316361	 -27.0643501	 -50.9253616
C1	 -1.46038318	 -26.9559059	 -48.8884773
C1	 0.250440061	 -26.9057884	 -47.5645866
C1	 1.51320004	 -27.0966949	 -46.5161285
C1	 3.00314665	 -27.177393	 -45.4169121
C1	 3.7778511	 -27.8014183	 -44.7780075
C1	 4.24936628	 -28.7934895	 -44.6901283
C1	 3.50163364	 -30.3684845	 -45.1338844
C1	 3.13648772	 -32.0330925	 -45.4978218
C1	 2.63017321	 -33.7361946	 -46.4025116
C1	 1.76422524	 -36.0041199	 -47.4169273
C1	 0.78094697	 -38.7302208	 -48.4128609
C1	 -0.565040469	 -42.1669922	 -48.0887833
C1	 -2.15612745	 -45.1573486	 -46.3852386
C1	 -3.06034327	 -46.4520912	 -43.7725296
C1	 -3.73070979	 -47.069622	 -41.9515533
C1	 -3.86093736	 -47.191967	 -40.5510902
C1	 -3.01352644	 -47.3365326	 -39.4572372
C1	 -1.68842745	 -47.3651886	 -38.2118111
C1	 -0.429730058	 -47.6907883	 -37.5493851
C1	 1.1158179	 -48.5195618	 -37.1283379
C1	 2.84019113	 -49.7363167	 -36.8663979
C1	 4.93659639	 -51.2897568	 -36.3805122
C1	 7.47820044	 -53.1433868	 -34.1398811
C1	 8.91317368	 -53.1379013	 -30.2238998
C1	 8.67106533	 -51.3542824	 -26.5322075
C1	 7.48883247	 -48.5377846	 -23.3232994
C1	 6.13832235	 -46.6923141	 -21.4069099
C1	 5.20610523	 -45.0077133	 -19.0310726
C1	 4.27330256	 -43.6280861	 -16.8502388
C1	 3.2536993	 -42.6269455	 -14.689477
C1	 2.43073893	 -42.0153656	 -12.5837288
C1	 1.89596868	 -41.2475204	 -10.5150089
C1	 1.05638874	 -41.2731934	 -9.02048206
C1	 -0.00667816401	 -42.3868027	 -8.14740181
C1	 -1.40231347	 -44.4781494	 -7.38486814
C1	 -2.89388585	 -46.4482079	 -6.3330431
C1	 -4.72155333	 -48.7766991	 -5.24392605
C1	 -6.40806103	 -51.5096512	 -4.06782913
C1	 -7.61896849	 -54.2762871	 -2.76719141
C1	 -2.1274786	 61.1257706	 -3.41690302
C1	 -4.17516232	 61.1013603	 -5.44802141
C1	 -6.22246122	 61.0767326	 -7.47867632
C1	 -6.56689787	 61.030323	 -9.63708305
C1	 -5.20923185	 60.9617462	 -11.9263783
C1	 -3.8511169	 60.8930206	 -14.216177
C1	 -2.49398017	 60.8244057	 -16.5044708
C1	 -0.729284942	 61.0708199	 -17.5495472
C1	 1.03658748	 61.3171768	 -18.5952797
C1	 2.80203629	 61.563385	 -19.6408176
C1	 3.80393863	 61.0596542	 -21.1787891
C1	 4.04363966	 59.8046989	 -23.2115097
C1	 4.28327131	 58.54953	 -25.2445908
C1	 4.52295351	 57.2953682	 -27.2763233
C1	 4.18340445	 54.9538002	 -28.9924164
C1	 3.84366202	 52.6096878	 -30.7097321
C1	 3.50397539	 50.2672958	 -32.4265327
C1	 4.17573643	 48.301693	 -33.9560928
C1	 5.85998583	 46.7103004	 -35.3004913
C1	 7.54459143	 45.118927	 -36.6452179
C1	 9.22816849	 43.5284233	 -37.9890862
C1	 9.35031986	 42.2922249	 -40.5709076
C1	 9.47232723	 41.0552216	 -43.1542854
C1	 9.59453678	 39.8183937	 -45.7375717
C1	 8.9359684	 38.5756264	 -47.7679634
C1	 7.49520493	 37.3250809	 -49.2481651
C1	 6.05433178	 36.0740509	 -50.7286797
C1	 4.61434221	 34.8240395	 -52.2081985
C1	 2.45003748	 34.3253365	 -51.380291
C1	 0.284277558	 33.8262558	 -50.5515366
C1	 -1.88094449	 33.327404	 -49.7229424
C1	 -4.37805414	 32.2473106	 -48.710186
C1	 -7.21076775	 30.584383	 -47.5116081
C1	 -10.0442238	 28.9211273	 -46.3127975
C1	 -12.8753805	 27.2589436	 -45.1147995
C1	 -13.2656355	 24.6377144	 -46.0792465
C1	 -13.6559725	 22.0147152	 -47.0443535
C1	 -14.0455666	 19.3922825	 -48.0092087
C1	 -13.3851137	 17.1936073	 -49.5511436
C1	 -11.6709957	 15.4155598	 -51.6724014
C1	 -9.95680428	 13.6369905	 -53.7938805
C1	 -8.24368191	 11.8596907	 -55.9143524
C1	 -6.27429438	 11.3787155	 -57.5790977
C1	 -4.30302525	 10.89744	 -59.2456436
C1	 -2.33250093	 10.4162779	 -60.9114075
C1	 -0.802124202	 9.51276875	 -61.6559181
C1	 0.290254921	 8.18561935	 -61.4807549
C1	 1.38288569	 6.85815668	 -61.3056908
C1	 2.47477627	 5.53160667	 -61.130394
C1	 2.87877822	 3.04097557	 -60.4744835
C1	 3.2830267	 0.548642993	 -59.8189507
C1	 3.68716002	 -1.94311249	 -59.163063
C1	 3.14120269	 -4.10334349	 -58.6041794
C1	 1.64421129	 -5.93525314	 -58.1406097
C1	 0.14690575	 -7.76755333	 -57.6771622
C1	 -1.34940529	 -9.59862328	 -57.2138748
C1	 -2.01632214	 -11.7991438	 -57.2697144
C1	 -2.68368101	 -14.001173	 -57.3256416
C1	 -3.35091472	 -16.2027111	 -57.3817368
C1	 -3.37518716	 -18.2293625	 -57.1937218
C1	 -2.7565949	 -20.0840378	 -56.7609673
C1	 -2.13787651	 -21.9389496	 -56.3284454
C1	 -1.51951623	 -23.7930489	 -55.8959045
C1	 -0.625798464	 -23.598465	 -54.3556519
C1	 0.268571824	 -23.4035816	 -52.81353
C1	 1.16272068	 -23.2089233	 -51.2721939
C1	 2.73102379	 -23.3150902	 -49.2436562
C1	 4.97570372	 -23.7223511	 -46.7249908
C1	 7.22076273	 -24.129673	 -44.2058487
C1	 9.46460342	 -24.5367146	 -41.6883659
C1	 8.37918949	 -27.3163452	 -41.3905869
C1	 7.29260159	 -30.0978527	 -41.0925941
C1	 6.20650148	 -32.8787041	 -40.7946815
C1	 4.60599709	 -35.18787	 -41.0736618
C1	 2.48850584	 -37.0283051	 -41.9299507
C1	 0.370610505	 -38.8689995	 -42.7864227
C1	 -1.74591923	 -40.7088585	 -43.6424179
C1	 -3.65485597	 -41.3873596	 -42.415081
C1	 -5.5650816	 -42.0662498	 -41.1869431
C1	 -7.47497225	 -42.7449379	 -39.9589958
C1	 -7.63984776	 -43.8336334	 -38.2594109
C1	 -6.05978966	 -45.3334198	 -36.0854645
C1	 -4.47964287	 -46.8336067	 -33.9111481
C1	 -2.90043807	 -48.3328362	 -31.7383976
C1	 -0.989016473	 -49.0693398	 -31.7843933
C1	 0.923588455	 -49.8066254	 -31.830492
C1	 2.8357923	 -50.5436668	 -31.8765068
C1	 3.74252176	 -50.1634178	 -31.2897301
C1	 3.64512825	 -48.6634064	 -30.0692654
C1	 3.54770207	 -47.1632347	 -28.848629
C1	 3.45034909	 -45.6640358	 -27.6287613
C1	 3.20883417	 -43.1628761	 -24.8677216
C1	 2.96714234	 -40.6601295	 -22.1048241
C1	 2.72552013	 -38.1577225	 -19.3426437
C1	 2.65850163	 -36.5810928	 -16.2881927
C1	 2.76600933	 -35.9279594	 -12.9370756
C1	 2.87351942	 -35.2745132	 -9.58520222
C1	 2.98097634	 -34.6221809	 -6.23553276
C1	 1.84847569	 -38.1708298	 -4.60057259
C1	 0.715212166	 -41.7217979	 -2.96466827
C1	 -0.417797148	 -45.2720261	 -1.32903385
C1	 -1.39688516	 -48.4889679	 -0.300233841
C1	 -2.22350812	 -51.3773689	 0.122853518
C1	 -3.05031371	 -54.2664337	 0.54612422
C1	 -5.10545826	 -56.3720093	 3.26072955
C1	 -6.33515072	 -55.5902061	 5.55376911
C1	 -7.56469917	 -54.8084183	 7.84641457
C1	 -9.67707539	 -54.169899	 8.96374226
C1	 -12.675621	 -53.6738739	 8.90757275
C1	 -15.6747589	 -53.1774406	 8.85151005
C1	 -18.672081	 -52.6815186	 8.79601669
C1	 -19.9054718	 -52.713356	 7.7756238
C1	 -21.1401558	 -52.7450256	 6.75476646
C1	 -22.3742447	 -52.7765923	 5.73468208
C1	 -23.3952522	 -52.4446297	 3.56809402
C1	 -24.2052612	 -51.7483292	 0.252661407
C1	 -25.0151196	 -51.0518875	 -3.06354213
C1	 -25.8243332	 -50.3559685	 -6.37751341
C1	 -28.6202621	 -48.9443092	 -6.35020208
C1	 -31.4177437	 -47.5314484	 -6.32291889
C1	 -34.2150192	 -46.1193047	 -6.29547024
C1	 -35.9199562	 -45.0332565	 -5.96943474
C1	 -36.5353622	 -44.2721176	 -5.34438848
C1	 -37.1502686	 -43.5106506	 -4.7192049
C1	 -37.7654648	 -42.7498169	 -4.09445429
C1	 -37.0104256	 -41.4820175	 -1.1457262
C1	 -36.2548218	 -40.2134476	 1.80503988
C1	 -35.4993286	 -38.9450951	 4.75499916
C1	 -36.0464859	 -37.2791748	 6.62677431
C1	 -37.897171	 -35.2131958	 7.42297935
C1	 -39.7482376	 -33.1467743	 8.21948242
C1	 -41.5980453	 -31.0817375	 9.01490402
C1	 -43.431469	 -30.4504547	 8.28628349
C1	 -45.2660408	 -29.8187485	 7.55724287
C1	 -47.1005096	 -29.1871719	 6.82800102
C1	 -48.7421989	 -29.0862656	 5.43097496
C1	 -50.1931381	 -29.5158386	 3.36365795
C1	 -51.645031	 -29.9454784	 1.29589343
C1	 -53.0954628	 -30.3748455	 -0.770482421
C1	 -54.9523392	 -28.8141975	 -1.472036
C1	 -56.8105774	 -27.2523766	 -2.17404342
C1	 -58.6681976	 -25.6910286	 -2.87590957
C1	 -60.3549271	 -24.6990433	 -3.49067044
C1	 -61.873497	 -24.2751694	 -4.01928711
C1	 -63.3915558	 -23.8512993	 -4.54799938
C1	 -64.9106216	 -23.4277611	 -5.0762248
C1	 -63.2788048	 -22.890461	 -5.29791451
C1	 -61.6493912	 -22.3530655	 -5.5198102
C1	 -60.0195007	 -21.8153877	 -5.74155998
C1	 -57.8181763	 -20.8594036	 -5.6784153
C1	 -55.0425911	 -19.4825439	 -5.33029652
C1	 -52.2667389	 -18.1058578	 -4.98227644
C1	 -49.4924049	 -16.729229	 -4.6345458
C1	 -46.747261	 -14.6488972	 -4.49970818
C1	 -44.000248	 -12.5671339	 -4.3650322
C1	 -41.253891	 -10.4848995	 -4.23043442
C1	 -38.9226646	 -7.86179304	 -4.28550386
C1	 -37.0031013	 -4.69310951	 -4.53053331
C1	 -35.0831413	 -1.52424455	 -4.7756362
C1	 -33.1649323	 1.64283085	 -5.02040863
C1	 -34.5215302	 4.82904339	 -4.2027216
C1	 -35.8795776	 8.01739311	 -3.38442564
C1	 -37.2366943	 11.2050486	 -2.56617904
C1	 -38.9294319	 13.8450089	 -1.83703375
C1	 -40.9599152	 15.9410963	 -1.19580781
C1	 -42.9907494	 18.0376816	 -0.554443061
C1	 -45.0203552	 20.132864	 0.0864839107
C1	 -46.7492294	 22.1027489	 0.422979474
C1	 -48.4792633	 24.0738907	 0.759703815
C1	 -50.2087822	 26.04459	 1.0963372
C1	 -51.2174911	 27.9664383	 1.28364408
C1	 -51.5061417	 29.8422375	 1.32188725
C1	 -51.7950897	 31.7182846	 1.36011887
C1	 -52.08358	 33.5931168	 1.39833021
C1	 -50.5744057	 34.9111595	 1.13390911
C1	 -49.063755	 36.2300415	 0.869306743
C1	 -47.5533562	 37.5484619	 0.604760885
C1	 -46.1097336	 38.6218643	 -0.681164145
C1	 -44.7304955	 39.4512215	 -2.99030757
C1	 -43.3509712	 40.2810593	 -5.30004978
C1	 -41.9724197	 41.1095047	 -7.60817432
C1	 -40.435791	 42.7321243	 -8.24682903
C1	 -38.8980865	 44.3554802	 -8.88616657
C1	 -37.3609047	 45.9789658	 -9.52517509
C1	 -35.58881	 47.9313278	 -9.59401035
C1	 -33.5792923	 50.2178612	 -9.0931015
C1	 -31.5692711	 52.5042114	 -8.59190559
C1	 -29.5606327	 54.7892532	 -8.09106255
C1	 -29.0119724	 55.7656898	 -5.9768095
C1	 -28.4629478	 56.7420883	 -3.86095643
C1	 -27.9140301	 57.7184677	 -1.74575484
C1	 -27.2313347	 57.5045242	 -0.0539354533
C1	 -26.4142189	 56.1003189	 1.21680987
C1	 -25.5968132	 54.6955643	 2.48788118
C1	 -24.7797585	 53.2915154	 3.75810122
C1	 -22.8438511	 51.6959381	 4.81919765
C1	 -20.9065132	 50.0994301	 5.8810277
C1	 -18.9697075	 48.5032272	 6.94257164
C1	 -16.6170158	 48.2397842	 6.44486761
C1	 -13.8450928	 49.3086243	 4.38739824
C1	 -11.0725603	 50.377655	 2.3294692
C1	 -8.30189323	 51.4460258	 0.272860885
C1	 -7.11735058	 52.9517593	 -0.558241248
C1	 -5.93203735	 54.4584923	 -1.38990545
C1	 -4.74697828	 55.9647369	 -2.22137332
C1	 -3.57322645	 57.3506393	 -2.45836997
C1	 -2.40910864	 58.6170311	 -2.10127354
C1	 -1.24472213	 59.8842354	 -1.74408257
C1	 -9.84335327	 -60.1178131	 -0.00514030457
C1	 -9.88935757	 -63.237648	 1.82609129
C1	 -8.99210262	 -66.1231003	 3.69003296
C1	 -7.07986546	 -68.3113251	 5.79658937
C1	 -4.97360516	 -69.3424149	 7.96097136
C1	 -2.70375586	 -69.8062897	 10.0197935
C1	 -0.245062113	 -69.5354004	 12.2493
C1	 1.57017016	 -68.7454376	 14.3588123
C1	 3.21853638	 -68.0371704	 16.5983849
C1	 4.53022146	 -67.3156891	 18.8129139
C1	 5.88101768	 -66.8045883	 21.0987759
C1	 6.76571178	 -66.0742416	 23.6423454
C1	 7.51118374	 -65.1801987	 26.3032684
C1	 8.11927128	 -63.9514351	 28.9572506
C1	 8.62624645	 -62.3380737	 31.5008163
C1	 8.80670357	 -60.5780106	 33.6213493
C1	 9.15722847	 -58.8189087	 35.3863907
C1	 9.7148037	 -57.1575508	 36.9968147
C1	 10.4918146	 -55.4190178	 38.5671463
C1	 11.3711224	 -53.6689987	 40.0688858
C1	 12.3882551	 -51.9254951	 41.2637329
C1	 11.6281958	 -50.2363968	 43.1970291
C1	 11.0709057	 -48.6117668	 44.8016472
C1	 10.448493	 -47.2001457	 46.1407051
C1	 8.92100811	 -45.737854	 47.1040726
C1	 7.51527882	 -44.7824364	 48.4664841
C1	 5.84750891	 -43.9646759	 50.116375
C1	 4.10766077	 -43.549324	 51.9567184
C1	 2.50212359	 -42.4613762	 54.707653
C1	 0.258397698	 -40.9081306	 56.6891327
C1	 -1.84984231	 -38.3338089	 58.0769196
C1	 -3.6799705	 -35.4069328	 58.3246231
C1	 -5.41222191	 -33.3382912	 58.2327576
C1	 -7.1691041	 -31.4208946	 58.0492706
C1	 -8.34862518	 -29.7151756	 58.1943741
C1	 -9.89679909	 -28.2203884	 58.7142639
C1	 -11.3865633	 -26.0264645	 59.5453835
C1	 -12.6209393	 -23.3882351	 59.7366562
C1	 -12.2245378	 -20.6902771	 60.2892113
C1	 -11.2977505	 -17.8283539	 60.4526596
C1	 -9.91132259	 -15.0786057	 60.3372498
C1	 -7.72565174	 -12.5573273	 59.8161774
C1	 -5.45214701	 -11.0942631	 59.7262573
C1	 -3.16764188	 -10.2722836	 59.8998756
C1	 -1.38396025	 -9.68528557	 60.3018036
C1	 -0.150515497	 -8.88008595	 61.0943642
C1	 0.694545567	 -7.6057353	 62.3564453
C1	 1.9125576	 -5.83039904	 63.746479
C1	 4.19605732	 -3.73579168	 64.9328156
C1	 6.31151438	 -0.727510214	 64.2937012
C1	 7.39077377	 2.01025653	 61.9204483
C1	 6.46702242	 4.48210144	 59.195076
C1	 4.34464788	 6.16153049	 57.3312454
C1	 2.31720352	 7.3729496	 56.4050369
C1	 0.348307818	 8.42321301	 55.725769
C1	 -1.05499315	 9.670331	 55.5284996
C1	 -2.02422929	 11.3172817	 55.727108
C1	 -2.61507702	 13.8204718	 56.1428909
C1	 -3.80198407	 16.5355759	 56.7454414
C1	 -6.14778709	 19.9306812	 56.803772
C1	 -8.95510769	 22.8216724	 54.4280891
C1	 -9.86293983	 23.8364601	 50.494873
C1	 -7.64040613	 23.8372192	 46.8459435
C1	 -5.32811785	 23.4698601	 45.3823547
C1	 -3.04283333	 23.2678509	 44.3954048
C1	 -1.10412765	 23.2733231	 43.7193794
C1	 0.474336922	 23.8710117	 43.0825729
C1	 1.76428151	 24.8017941	 42.34161
C1	 3.01570773	 25.7394714	 41.5075302
C1	 3.97948027	 26.9408607	 41.0402451
C1	 4.65314722	 28.3932362	 40.8222542
C1	 4.99285078	 30.5703011	 40.8054695
C1	 5.52552128	 32.8716736	 40.8324509
C1	 5.9456315	 35.3375053	 41.1083832
C1	 6.25251007	 38.1276894	 41.5624123
C1	 6.69685698	 41.3328323	 41.95644
C1	 7.37907028	 44.6080856	 42.3976173
C1	 8.09444141	 48.8340454	 41.0057869
C1	 8.29742718	 50.8340569	 37.3659058
C1	 6.94213247	 50.7858696	 33.528698
C1	 4.69484282	 49.6692657	 31.3224068
C1	 2.71497488	 48.910553	 30.3239555
C1	 0.697696149	 48.4107437	 29.4074612
C1	 -0.9167431	 48.3311577	 28.6166153
C1	 -2.54951	 48.6363411	 27.7746391
C1	 -3.82615066	 49.0043716	 26.7525635
C1	 -4.95935392	 49.4746933	 25.8789234
C1	 -5.75889444	 50.3378792	 25.1128883
C1	 -5.74855661	 51.9441757	 24.5997086
C1	 -5.91824055	 53.9559479	 23.8826618
C1	 -6.50186491	 56.3849716	 23.5642815
C1	 -7.11770105	 59.9287872	 21.8258095
C1	 -7.49294996	 61.7921677	 18.4766083
C1	 -6.56582403	 61.8738594	 14.972806
C1	 -4.70876884	 60.6125755	 12.6688633
C1	 -2.88408256	 59.6188774	 11.5684032
C1	 -1.09942961	 59.0425034	 10.7500935
C1	 0.37741518	 59.0499763	 9.86811638
C1	 1.53767252	 59.7901802	 8.95824814
C1	 2.7014122	 60.7131653	 7.46616125
C1	 3.83678913	 61.735054	 6.36770773
C1	 4.44911242	 62.9099121	 4.87453985
C1	 4.29924202	 63.7649918	 2.97082424
C1	 2.82792425	 64.554924	 1.27641344
C1	 -4.41379833	 -58.9975128	 2.62092018
C1	 -4.95143175	 -60.8431778	 4.27378654
C1	 -5.4889369	 -62.6881409	 5.92630339
C1	 -5.16143465	 -63.8273849	 7.34356976
C1	 -3.96805072	 -64.2618561	 8.52763844
C1	 -2.77446985	 -64.6972122	 9.71199226
C1	 -1.58168793	 -65.132309	 10.8955412
C1	 0.772381067	 -64.4189606	 12.914362
C1	 3.12804365	 -63.704567	 14.934535
C1	 5.48327446	 -62.9892731	 16.9542828
C1	 6.64163256	 -62.2825699	 19.3074131
C1	 6.60527611	 -61.579483	 21.9976025
C1	 6.56874657	 -60.8764076	 24.6882114
C1	 6.53221607	 -60.1740036	 27.3770866
C1	 6.10801744	 -58.8491211	 29.4380188
C1	 5.68372869	 -57.5227585	 31.5001411
C1	 5.25924015	 -56.1973228	 33.5618553
C1	 5.84536982	 -54.5149002	 35.1094818
C1	 7.44267941	 -52.4726524	 36.1448822
C1	 9.03997898	 -50.430294	 37.1806297
C1	 10.6376257	 -48.3895798	 38.2158585
C1	 11.3153601	 -46.3297119	 40.1988068
C1	 11.9935465	 -44.268734	 42.1831284
C1	 12.672266	 -42.207962	 44.1673737
C1	 11.9973764	 -40.7441177	 46.0589104
C1	 9.96791649	 -39.8744926	 47.8607521
C1	 7.93850517	 -39.0048828	 49.6631508
C1	 5.91053581	 -38.135994	 51.4638672
C1	 2.92777658	 -37.8302841	 52.1039085
C1	 -0.0569142401	 -37.524353	 52.745121
C1	 -3.04091001	 -37.2183037	 53.3853607
C1	 -5.49712324	 -36.3324432	 53.5844727
C1	 -7.42939806	 -34.864193	 53.341095
C1	 -9.36178493	 -33.3961334	 53.0979691
C1	 -11.2923574	 -31.9285793	 52.855278
C1	 -11.2486553	 -28.8764458	 53.6547661
C1	 -11.2040081	 -25.8221493	 54.4550514
C1	 -11.1590557	 -22.7687798	 55.2550468
C1	 -10.390048	 -20.4657497	 55.9027748
C1	 -8.89533424	 -18.9097996	 56.4002533
C1	 -7.39974642	 -17.353508	 56.8975677
C1	 -5.90546083	 -15.7982817	 57.3944168
C1	 -2.9085505	 -14.7033281	 57.2917519
C1	 0.0904535055	 -13.6076164	 57.1890678
C1	 3.08883071	 -12.5121632	 57.08601
C1	 4.53423023	 -10.7114124	 57.3923187
C1	 4.42886353	 -8.20277882	 58.1085625
C1	 4.32353735	 -5.69357014	 58.8252602
C1	 4.21823692	 -3.18603921	 59.5413971
C1	 3.75096798	 -1.63844585	 59.5144234
C1	 3.28346682	 -0.0898120403	 59.4870071
C1	 2.81607151	 1.45847309	 59.4603462
C1	 1.31811619	 2.84963608	 58.6957169
C1	 -1.21261621	 4.08570099	 57.192318
C1	 -3.74388576	 5.32203436	 55.6888466
C1	 -6.27348518	 6.55755949	 54.185894
C1	 -6.60253906	 9.38367748	 53.5830498
C1	 -6.93181181	 12.2117023	 52.9794083
C1	 -7.26095915	 15.039155	 52.3763504
C1	 -7.25800037	 17.0443726	 51.6787148
C1	 -6.9230895	 18.2304974	 50.8860664
C1	 -6.58803463	 19.4167919	 50.093277
C1	 -6.25335169	 20.602314	 49.3008957
C1	 -3.43984461	 20.2964001	 48.2553596
C1	 -0.624449909	 19.9902039	 47.2091408
C1	 2.19030881	 19.684082	 46.1631737
C1	 4.2987051	 20.0459805	 44.6985092
C1	 5.70353746	 21.0764198	 42.8130035
C1	 7.10893679	 22.1070862	 40.9270897
C1	 8.51253223	 23.137064	 39.0424576
C1	 8.92156029	 25.9882851	 38.5023117
C1	 9.33009434	 28.8414497	 37.9619598
C1	 9.73829651	 31.6939259	 37.4216461
C1	 9.74414253	 34.6493416	 37.1153793
C1	 9.34683704	 37.7118607	 37.0427132
C1	 8.94969654	 40.7752571	 36.9700432
C1	 8.5528326	 43.8363152	 36.8974266
C1	 7.49539185	 44.8345604	 36.5088959
C1	 6.43735075	 45.8335876	 36.1201439
C1	 5.37942028	 46.8320923	 35.7314911
C1	 3.5091114	 47.021843	 34.983429
C1	 0.823722661	 46.4036827	 33.8749771
C1	 -1.86231828	 45.7852669	 32.7661476
C1	 -4.54660034	 45.1671715	 31.6582527
C1	 -6.15854168	 45.1402931	 29.7167454
C1	 -7.77157593	 45.1136627	 27.7739563
C1	 -9.38480568	 45.086956	 25.8316383
C1	 -9.82049465	 46.371994	 23.9306221
C1	 -9.07956505	 48.9708633	 22.0681782
C1	 -8.33867455	 51.5703316	 20.2053223
C1	 -7.59811783	 54.1676979	 18.3437176
C1	 -6.59927177	 55.2913818	 17.8409691
C1	 -5.59945059	 56.4165535	 17.3378716
C1	 -4.60010719	 57.5414581	 16.8349323
C1	 -2.85309792	 57.9280777	 16.3009796
C1	 -0.355857849	 57.5790596	 15.7352943
C1	 2.14200687	 57.2299347	 15.1694698
C1	 4.63827801	 56.8808212	 14.6040916
C1	 5.40280247	 56.8670769	 11.7724895
C1	 6.16791201	 56.8531799	 8.9390564
C1	 6.93257523	 56.8393211	 6.10624123
C1	 6.2588582	 57.4491806	 3.82307053
C1	 4.14546251	 58.6825447	 2.08620119
C1	 2.03139353	 59.9167786	 0.348941684
C1	 -8.34747124	 -57.3963089	 -3.61168909
C1	 -7.45526123	 -58.3639221	 -5.79850006
C1	 -6.25930643	 -59.9823265	 -7.85614872
C1	 -3.61338902	 -62.2771034	 -9.05565643
C1	 -0.229196072	 -63.4092102	 -8.35949612
C1	 2.85858393	 -62.9347649	 -6.78890991
C1	 5.36406755	 -61.1365585	 -5.66421032
C1	 6.81035852	 -59.4971848	 -5.00428057
C1	 8.4025135	 -58.4589539	 -4.44378805
C1	 9.73634815	 -57.5172195	 -3.8582592
C1	 10.7454424	 -57.0418549	 -2.52268553
C1	 11.563982	 -57.2282715	 -0.759431899
C1	 12.6974411	 -57.8832817	 1.54710126
C1	 14.7423458	 -59.5367584	 3.40614295
C1	 18.4498329	 -60.7448578	 4.78778648
C1	 22.0856247	 -60.3369865	 3.48211575
C1	 24.7776947	 -57.8996277	 1.49437618
C1	 25.8272133	 -54.7222977	 0.427832246
C1	 26.3424282	 -52.0857887	 -0.119653806
C1	 26.8559685	 -49.6396751	 -0.282251954
C1	 27.1355534	 -47.8700333	 -1.04497969
C1	 27.3960247	 -46.2432556	 -2.38371825
C1	 27.9641209	 -44.6577148	 -4.50227976
C1	 29.0359955	 -42.8399048	 -6.48886919
C1	 30.9065037	 -40.7840881	 -8.40684795
C1	 33.5912399	 -38.8715477	 -9.66916466
C1	 36.4033165	 -37.3543167	 -10.9620762
C1	 40.1088066	 -36.3416786	 -11.442934
C1	 43.4416771	 -35.5235329	 -10.8617115
C1	 46.5874939	 -35.5334816	 -9.94131279
C1	 49.5165863	 -35.6631775	 -9.03586674
C1	 52.3543434	 -36.0206337	 -8.22764778
C1	 55.346138	 -36.5396347	 -7.10080767
C1	 58.4054985	 -37.2090683	 -5.36052465
C1	 60.8499451	 -37.210083	 -2.07127547
C1	 61.8377991	 -35.6643791	 1.40602934
C1	 61.7780991	 -33.2365837	 3.57616234
C1	 61.5965385	 -31.0341396	 5.22519064
C1	 61.4732246	 -29.3011703	 6.79103184
C1	 61.5915413	 -27.6757393	 8.75292969
C1	 62.0721397	 -25.8234406	 11.0504808
C1	 62.8440742	 -23.2022781	 12.8825569
C1	 62.8054962	 -20.6782322	 14.6555061
C1	 63.7073631	 -17.8232155	 15.7879372
C1	 64.4916611	 -14.5137596	 16.0161819
C1	 65.1943207	 -11.2941151	 15.3981361
C1	 66.0670319	 -8.65838337	 14.1667938
C1	 67.2223206	 -6.20646191	 12.4947777
C1	 68.6363831	 -3.73115969	 10.9356709
C1	 69.8973389	 -2.87740564	 7.56562376
C1	 70.1942902	 -1.26706409	 4.81909466
C1	 69.8148193	 0.512138367	 1.82305193
C1	 68.3598862	 2.36749554	 -0.70735842
C1	 66.2487488	 3.76758194	 -2.73613095
C1	 63.7597122	 4.74417162	 -4.35748339
C1	 61.1932678	 5.35533285	 -5.55840158
C1	 59.2265854	 6.00813055	 -6.31638288
C1	 57.3749771	 6.99827433	 -7.23667192
C1	 55.8070145	 7.9307189	 -7.98341513
C1	 54.5535545	 9.11508369	 -8.48949718
C1	 53.6565285	 10.5749016	 -8.78354931
C1	 52.8111687	 12.0931797	 -9.12774181
C1	 52.4999084	 13.4420681	 -8.86052704
C1	 52.5425491	 14.7251768	 -8.44289684
C1	 53.1887436	 16.1116238	 -7.33268976
C1	 54.013504	 17.6004429	 -6.31566429
C1	 55.0657806	 18.8049679	 -4.98235321
C1	 56.500679	 19.9550915	 -3.23045015
C1	 58.1455002	 21.3533707	 -1.0288564
C1	 59.6545715	 23.0869656	 1.52771425
C1	 60.5249443	 26.0604801	 4.38495016
C1	 59.9754715	 29.2059631	 6.27673244
C1	 58.6361275	 32.4875031	 7.70886374
C1	 56.666584	 35.6275826	 8.09681225
C1	 54.6539841	 38.1539803	 8.07077885
C1	 52.7632446	 40.5902557	 7.80413437
C1	 50.8321915	 42.871521	 7.50570679
C1	 49.4221268	 44.9501572	 6.26935673
C1	 47.7331047	 46.9341888	 5.33816624
C1	 46.1287689	 48.8451271	 4.41691589
C1	 44.9031906	 50.9973831	 2.84559178
C1	 43.295536	 52.8362465	 0.633188963
C1	 41.3193779	 54.0350494	 -1.80836844
C1	 38.0802498	 53.4324341	 -4.19178343
C1	 35.2232056	 51.6747971	 -5.14375353
C1	 32.3498993	 49.4737968	 -5.03110075
C1	 29.6779747	 47.2507477	 -4.43494844
C1	 27.3310509	 45.2949257	 -3.60752153
C1	 25.0254555	 43.6767426	 -2.91623807
C1	 22.684309	 41.9856186	 -2.28618503
C1	 20.4820366	 40.5898285	 -1.67980433
C1	 18.3279171	 39.70158	 -1.15757906
C1	 16.0082951	 39.0265579	 -0.913966358
C1	 14.1027937	 38.7095413	 -0.742256224
C1	 12.4527245	 39.1153412	 -0.565718353
C1	 11.1763439	 40.4344902	 -0.480959535
C1	 9.8964653	 42.3372917	 -0.486213923
C1	 9.12881851	 44.3571053	 -0.648816764
C1	 8.53759766	 46.9278221	 -1.0304271
C1	 8.07444859	 49.8506622	 -1.70540595
C1	 7.36852264	 52.6734924	 -2.53987622
C1	 6.61562777	 55.7952194	 -3.45824528
C1	 5.46938419	 59.3610497	 -3.8738575
C1	 3.90153217	 62.8616676	 -3.54720664
C1	 0.648769677	 58.9759369	 -0.937577188
C1	 1.37914634	 56.8002853	 -0.487705886
C1	 2.10931778	 54.6254883	 -0.0379350483
C1	 2.62820959	 51.7897301	 0.0567126125
C1	 2.93633318	 48.289196	 -0.203631565
C1	 3.24467087	 44.7879066	 -0.464037001
C1	 3.55247927	 41.2888641	 -0.724256992
C1	 5.61087561	 38.5112534	 -0.810856402
C1	 7.66998625	 35.7322464	 -0.897508204
C1	 9.72886086	 32.9536896	 -0.984148085